+ 0.1 1 2 tcp 40 ------- 2 1.0 5.0 0 0
- 0.1 1 2 tcp 40 ------- 2 1.0 5.0 0 0
r 0.11016 1 2 tcp 40 ------- 2 1.0 5.0 0 0
+ 0.11016 2 3 tcp 40 ------- 2 1.0 5.0 0 0
- 0.11016 2 3 tcp 40 ------- 2 1.0 5.0 0 0
r 0.211227 2 3 tcp 40 ------- 2 1.0 5.0 0 0
h 0.211227 3 6 tcp 40 ------- 2 1.0 5.0 0 0
+ 0.251227 3 6 tcp 40 ------- 2 1.0 5.0 0 0
- 0.251227 3 6 tcp 40 ------- 2 1.0 5.0 0 0
d 0.251231 4 6 tcp 40 ------- 2 1.0 5.0 0 0
r 0.291231 6 5 tcp 40 ------- 2 1.0 5.0 0 0
h 0.291231 5 6 ack 40 ------- 2 5.0 1.0 0 1
+ 0.331231 5 6 ack 40 ------- 2 5.0 1.0 0 1
- 0.331231 5 6 ack 40 ------- 2 5.0 1.0 0 1
d 0.331235 4 6 ack 40 ------- 2 5.0 1.0 0 1
r 0.371235 6 3 ack 40 ------- 2 5.0 1.0 0 1
+ 0.371235 3 2 ack 40 ------- 2 5.0 1.0 0 1
- 0.371235 3 2 ack 40 ------- 2 5.0 1.0 0 1
r 0.472301 3 2 ack 40 ------- 2 5.0 1.0 0 1
+ 0.472301 2 1 ack 40 ------- 2 5.0 1.0 0 1
- 0.472301 2 1 ack 40 ------- 2 5.0 1.0 0 1
r 0.482461 2 1 ack 40 ------- 2 5.0 1.0 0 1
+ 0.482461 1 2 tcp 1040 ------- 2 1.0 5.0 1 2
- 0.482461 1 2 tcp 1040 ------- 2 1.0 5.0 1 2
+ 0.482461 1 2 tcp 1040 ------- 2 1.0 5.0 2 3
- 0.486621 1 2 tcp 1040 ------- 2 1.0 5.0 2 3
r 0.496621 1 2 tcp 1040 ------- 2 1.0 5.0 1 2
+ 0.496621 2 3 tcp 1040 ------- 2 1.0 5.0 1 2
- 0.496621 2 3 tcp 1040 ------- 2 1.0 5.0 1 2
r 0.500781 1 2 tcp 1040 ------- 2 1.0 5.0 2 3
+ 0.500781 2 3 tcp 1040 ------- 2 1.0 5.0 2 3
- 0.524355 2 3 tcp 1040 ------- 2 1.0 5.0 2 3
r 0.624355 2 3 tcp 1040 ------- 2 1.0 5.0 1 2
h 0.624355 3 6 tcp 1040 ------- 2 1.0 5.0 1 2
r 0.652088 2 3 tcp 1040 ------- 2 1.0 5.0 2 3
h 0.652088 3 6 tcp 1040 ------- 2 1.0 5.0 2 3
+ 0.664355 3 6 tcp 1040 ------- 2 1.0 5.0 1 2
- 0.664355 3 6 tcp 1040 ------- 2 1.0 5.0 1 2
d 0.664359 4 6 tcp 1040 ------- 2 1.0 5.0 1 2
+ 0.692088 3 6 tcp 1040 ------- 2 1.0 5.0 2 3
- 0.692088 3 6 tcp 1040 ------- 2 1.0 5.0 2 3
d 0.692092 4 6 tcp 1040 ------- 2 1.0 5.0 2 3
r 0.704359 6 5 tcp 1040 ------- 2 1.0 5.0 1 2
r 0.732092 6 5 tcp 1040 ------- 2 1.0 5.0 2 3
h 0.732092 5 6 ack 40 ------- 2 5.0 1.0 2 4
+ 0.772092 5 6 ack 40 ------- 2 5.0 1.0 2 4
- 0.772092 5 6 ack 40 ------- 2 5.0 1.0 2 4
d 0.772096 4 6 ack 40 ------- 2 5.0 1.0 2 4
r 0.812096 6 3 ack 40 ------- 2 5.0 1.0 2 4
+ 0.812096 3 2 ack 40 ------- 2 5.0 1.0 2 4
- 0.812096 3 2 ack 40 ------- 2 5.0 1.0 2 4
r 0.913163 3 2 ack 40 ------- 2 5.0 1.0 2 4
+ 0.913163 2 1 ack 40 ------- 2 5.0 1.0 2 4
- 0.913163 2 1 ack 40 ------- 2 5.0 1.0 2 4
r 0.923323 2 1 ack 40 ------- 2 5.0 1.0 2 4
+ 0.923323 1 2 tcp 1040 ------- 2 1.0 5.0 3 5
- 0.923323 1 2 tcp 1040 ------- 2 1.0 5.0 3 5
+ 0.923323 1 2 tcp 1040 ------- 2 1.0 5.0 4 6
+ 0.923323 1 2 tcp 1040 ------- 2 1.0 5.0 5 7
- 0.927483 1 2 tcp 1040 ------- 2 1.0 5.0 4 6
- 0.931643 1 2 tcp 1040 ------- 2 1.0 5.0 5 7
r 0.937483 1 2 tcp 1040 ------- 2 1.0 5.0 3 5
+ 0.937483 2 3 tcp 1040 ------- 2 1.0 5.0 3 5
- 0.937483 2 3 tcp 1040 ------- 2 1.0 5.0 3 5
r 0.941643 1 2 tcp 1040 ------- 2 1.0 5.0 4 6
+ 0.941643 2 3 tcp 1040 ------- 2 1.0 5.0 4 6
r 0.945803 1 2 tcp 1040 ------- 2 1.0 5.0 5 7
+ 0.945803 2 3 tcp 1040 ------- 2 1.0 5.0 5 7
- 0.965216 2 3 tcp 1040 ------- 2 1.0 5.0 4 6
- 0.992949 2 3 tcp 1040 ------- 2 1.0 5.0 5 7
+ 1 0 2 tcp 40 ------- 1 0.0 4.0 0 8
- 1 0 2 tcp 40 ------- 1 0.0 4.0 0 8
r 1.01016 0 2 tcp 40 ------- 1 0.0 4.0 0 8
+ 1.01016 2 3 tcp 40 ------- 1 0.0 4.0 0 8
- 1.020683 2 3 tcp 40 ------- 1 0.0 4.0 0 8
r 1.065216 2 3 tcp 1040 ------- 2 1.0 5.0 3 5
h 1.065216 3 6 tcp 1040 ------- 2 1.0 5.0 3 5
r 1.092949 2 3 tcp 1040 ------- 2 1.0 5.0 4 6
h 1.092949 3 6 tcp 1040 ------- 2 1.0 5.0 4 6
+ 1.105216 3 6 tcp 1040 ------- 2 1.0 5.0 3 5
- 1.105216 3 6 tcp 1040 ------- 2 1.0 5.0 3 5
d 1.10522 4 6 tcp 1040 ------- 2 1.0 5.0 3 5
r 1.120683 2 3 tcp 1040 ------- 2 1.0 5.0 5 7
h 1.120683 3 6 tcp 1040 ------- 2 1.0 5.0 5 7
r 1.121749 2 3 tcp 40 ------- 1 0.0 4.0 0 8
h 1.121749 3 6 tcp 40 ------- 1 0.0 4.0 0 8
+ 1.132949 3 6 tcp 1040 ------- 2 1.0 5.0 4 6
- 1.132949 3 6 tcp 1040 ------- 2 1.0 5.0 4 6
d 1.132953 4 6 tcp 1040 ------- 2 1.0 5.0 4 6
r 1.14522 6 5 tcp 1040 ------- 2 1.0 5.0 3 5
+ 1.160683 3 6 tcp 1040 ------- 2 1.0 5.0 5 7
- 1.160683 3 6 tcp 1040 ------- 2 1.0 5.0 5 7
d 1.160687 4 6 tcp 1040 ------- 2 1.0 5.0 5 7
+ 1.161749 3 6 tcp 40 ------- 1 0.0 4.0 0 8
- 1.165099 3 6 tcp 40 ------- 1 0.0 4.0 0 8
d 1.165103 5 6 tcp 40 ------- 1 0.0 4.0 0 8
r 1.172953 6 5 tcp 1040 ------- 2 1.0 5.0 4 6
h 1.172953 5 6 ack 40 ------- 2 5.0 1.0 4 9
r 1.200687 6 5 tcp 1040 ------- 2 1.0 5.0 5 7
r 1.205103 6 4 tcp 40 ------- 1 0.0 4.0 0 8
h 1.205103 4 6 ack 40 ------- 1 4.0 0.0 0 10
+ 1.212953 5 6 ack 40 ------- 2 5.0 1.0 4 9
- 1.212953 5 6 ack 40 ------- 2 5.0 1.0 4 9
d 1.212957 4 6 ack 40 ------- 2 5.0 1.0 4 9
+ 1.245103 4 6 ack 40 ------- 1 4.0 0.0 0 10
- 1.245103 4 6 ack 40 ------- 1 4.0 0.0 0 10
d 1.245107 5 6 ack 40 ------- 1 4.0 0.0 0 10
r 1.252957 6 3 ack 40 ------- 2 5.0 1.0 4 9
+ 1.252957 3 2 ack 40 ------- 2 5.0 1.0 4 9
- 1.252957 3 2 ack 40 ------- 2 5.0 1.0 4 9
r 1.285107 6 3 ack 40 ------- 1 4.0 0.0 0 10
+ 1.285107 3 2 ack 40 ------- 1 4.0 0.0 0 10
- 1.285107 3 2 ack 40 ------- 1 4.0 0.0 0 10
h 1.300687 5 6 ack 40 ------- 2 5.0 1.0 5 11
+ 1.340687 5 6 ack 40 ------- 2 5.0 1.0 5 11
- 1.340687 5 6 ack 40 ------- 2 5.0 1.0 5 11
d 1.340691 4 6 ack 40 ------- 2 5.0 1.0 5 11
r 1.354024 3 2 ack 40 ------- 2 5.0 1.0 4 9
+ 1.354024 2 1 ack 40 ------- 2 5.0 1.0 4 9
- 1.354024 2 1 ack 40 ------- 2 5.0 1.0 4 9
r 1.364184 2 1 ack 40 ------- 2 5.0 1.0 4 9
+ 1.364184 1 2 tcp 1040 ------- 2 1.0 5.0 6 12
- 1.364184 1 2 tcp 1040 ------- 2 1.0 5.0 6 12
+ 1.364184 1 2 tcp 1040 ------- 2 1.0 5.0 7 13
+ 1.364184 1 2 tcp 1040 ------- 2 1.0 5.0 8 14
- 1.368344 1 2 tcp 1040 ------- 2 1.0 5.0 7 13
- 1.372504 1 2 tcp 1040 ------- 2 1.0 5.0 8 14
r 1.378344 1 2 tcp 1040 ------- 2 1.0 5.0 6 12
+ 1.378344 2 3 tcp 1040 ------- 2 1.0 5.0 6 12
- 1.378344 2 3 tcp 1040 ------- 2 1.0 5.0 6 12
r 1.380691 6 3 ack 40 ------- 2 5.0 1.0 5 11
+ 1.380691 3 2 ack 40 ------- 2 5.0 1.0 5 11
- 1.380691 3 2 ack 40 ------- 2 5.0 1.0 5 11
r 1.382504 1 2 tcp 1040 ------- 2 1.0 5.0 7 13
+ 1.382504 2 3 tcp 1040 ------- 2 1.0 5.0 7 13
r 1.386173 3 2 ack 40 ------- 1 4.0 0.0 0 10
+ 1.386173 2 0 ack 40 ------- 1 4.0 0.0 0 10
- 1.386173 2 0 ack 40 ------- 1 4.0 0.0 0 10
r 1.386664 1 2 tcp 1040 ------- 2 1.0 5.0 8 14
+ 1.386664 2 3 tcp 1040 ------- 2 1.0 5.0 8 14
r 1.396333 2 0 ack 40 ------- 1 4.0 0.0 0 10
+ 1.396333 0 2 tcp 1040 ------- 1 0.0 4.0 1 15
- 1.396333 0 2 tcp 1040 ------- 1 0.0 4.0 1 15
+ 1.396333 0 2 tcp 1040 ------- 1 0.0 4.0 2 16
- 1.400493 0 2 tcp 1040 ------- 1 0.0 4.0 2 16
- 1.406077 2 3 tcp 1040 ------- 2 1.0 5.0 7 13
r 1.410493 0 2 tcp 1040 ------- 1 0.0 4.0 1 15
+ 1.410493 2 3 tcp 1040 ------- 1 0.0 4.0 1 15
r 1.414653 0 2 tcp 1040 ------- 1 0.0 4.0 2 16
+ 1.414653 2 3 tcp 1040 ------- 1 0.0 4.0 2 16
- 1.433811 2 3 tcp 1040 ------- 2 1.0 5.0 8 14
- 1.461544 2 3 tcp 1040 ------- 1 0.0 4.0 1 15
r 1.481757 3 2 ack 40 ------- 2 5.0 1.0 5 11
+ 1.481757 2 1 ack 40 ------- 2 5.0 1.0 5 11
- 1.481757 2 1 ack 40 ------- 2 5.0 1.0 5 11
- 1.489277 2 3 tcp 1040 ------- 1 0.0 4.0 2 16
r 1.491917 2 1 ack 40 ------- 2 5.0 1.0 5 11
+ 1.491917 1 2 tcp 1040 ------- 2 1.0 5.0 9 17
- 1.491917 1 2 tcp 1040 ------- 2 1.0 5.0 9 17
+ 1.491917 1 2 tcp 1040 ------- 2 1.0 5.0 10 18
- 1.496077 1 2 tcp 1040 ------- 2 1.0 5.0 10 18
r 1.506077 2 3 tcp 1040 ------- 2 1.0 5.0 6 12
h 1.506077 3 6 tcp 1040 ------- 2 1.0 5.0 6 12
r 1.506077 1 2 tcp 1040 ------- 2 1.0 5.0 9 17
+ 1.506077 2 3 tcp 1040 ------- 2 1.0 5.0 9 17
r 1.510237 1 2 tcp 1040 ------- 2 1.0 5.0 10 18
+ 1.510237 2 3 tcp 1040 ------- 2 1.0 5.0 10 18
- 1.517011 2 3 tcp 1040 ------- 2 1.0 5.0 9 17
r 1.533811 2 3 tcp 1040 ------- 2 1.0 5.0 7 13
h 1.533811 3 6 tcp 1040 ------- 2 1.0 5.0 7 13
- 1.544744 2 3 tcp 1040 ------- 2 1.0 5.0 10 18
+ 1.546077 3 6 tcp 1040 ------- 2 1.0 5.0 6 12
- 1.546077 3 6 tcp 1040 ------- 2 1.0 5.0 6 12
d 1.546081 4 6 tcp 1040 ------- 2 1.0 5.0 6 12
r 1.561544 2 3 tcp 1040 ------- 2 1.0 5.0 8 14
h 1.561544 3 6 tcp 1040 ------- 2 1.0 5.0 8 14
+ 1.573811 3 6 tcp 1040 ------- 2 1.0 5.0 7 13
- 1.573811 3 6 tcp 1040 ------- 2 1.0 5.0 7 13
d 1.573815 4 6 tcp 1040 ------- 2 1.0 5.0 7 13
r 1.586081 6 5 tcp 1040 ------- 2 1.0 5.0 6 12
r 1.589277 2 3 tcp 1040 ------- 1 0.0 4.0 1 15
h 1.589277 3 6 tcp 1040 ------- 1 0.0 4.0 1 15
+ 1.601544 3 6 tcp 1040 ------- 2 1.0 5.0 8 14
- 1.601544 3 6 tcp 1040 ------- 2 1.0 5.0 8 14
d 1.601548 4 6 tcp 1040 ------- 2 1.0 5.0 8 14
r 1.613815 6 5 tcp 1040 ------- 2 1.0 5.0 7 13
h 1.613815 5 6 ack 40 ------- 2 5.0 1.0 7 19
r 1.617011 2 3 tcp 1040 ------- 1 0.0 4.0 2 16
h 1.617011 3 6 tcp 1040 ------- 1 0.0 4.0 2 16
+ 1.629277 3 6 tcp 1040 ------- 1 0.0 4.0 1 15
- 1.629277 3 6 tcp 1040 ------- 1 0.0 4.0 1 15
d 1.629281 5 6 tcp 1040 ------- 1 0.0 4.0 1 15
r 1.641548 6 5 tcp 1040 ------- 2 1.0 5.0 8 14
r 1.644744 2 3 tcp 1040 ------- 2 1.0 5.0 9 17
h 1.644744 3 6 tcp 1040 ------- 2 1.0 5.0 9 17
+ 1.653815 5 6 ack 40 ------- 2 5.0 1.0 7 19
- 1.653815 5 6 ack 40 ------- 2 5.0 1.0 7 19
d 1.653819 4 6 ack 40 ------- 2 5.0 1.0 7 19
+ 1.657011 3 6 tcp 1040 ------- 1 0.0 4.0 2 16
- 1.657011 3 6 tcp 1040 ------- 1 0.0 4.0 2 16
d 1.657015 5 6 tcp 1040 ------- 1 0.0 4.0 2 16
r 1.669281 6 4 tcp 1040 ------- 1 0.0 4.0 1 15
r 1.672477 2 3 tcp 1040 ------- 2 1.0 5.0 10 18
h 1.672477 3 6 tcp 1040 ------- 2 1.0 5.0 10 18
+ 1.684744 3 6 tcp 1040 ------- 2 1.0 5.0 9 17
- 1.684744 3 6 tcp 1040 ------- 2 1.0 5.0 9 17
d 1.684748 4 6 tcp 1040 ------- 2 1.0 5.0 9 17
r 1.693819 6 3 ack 40 ------- 2 5.0 1.0 7 19
+ 1.693819 3 2 ack 40 ------- 2 5.0 1.0 7 19
- 1.693819 3 2 ack 40 ------- 2 5.0 1.0 7 19
r 1.697015 6 4 tcp 1040 ------- 1 0.0 4.0 2 16
h 1.697015 4 6 ack 40 ------- 1 4.0 0.0 2 20
+ 1.712477 3 6 tcp 1040 ------- 2 1.0 5.0 10 18
- 1.712477 3 6 tcp 1040 ------- 2 1.0 5.0 10 18
d 1.712481 4 6 tcp 1040 ------- 2 1.0 5.0 10 18
r 1.724748 6 5 tcp 1040 ------- 2 1.0 5.0 9 17
h 1.724748 5 6 ack 40 ------- 2 5.0 1.0 9 21
+ 1.737015 4 6 ack 40 ------- 1 4.0 0.0 2 20
- 1.737015 4 6 ack 40 ------- 1 4.0 0.0 2 20
d 1.737019 5 6 ack 40 ------- 1 4.0 0.0 2 20
r 1.752481 6 5 tcp 1040 ------- 2 1.0 5.0 10 18
+ 1.764748 5 6 ack 40 ------- 2 5.0 1.0 9 21
- 1.764748 5 6 ack 40 ------- 2 5.0 1.0 9 21
d 1.764752 4 6 ack 40 ------- 2 5.0 1.0 9 21
r 1.777019 6 3 ack 40 ------- 1 4.0 0.0 2 20
+ 1.777019 3 2 ack 40 ------- 1 4.0 0.0 2 20
- 1.777019 3 2 ack 40 ------- 1 4.0 0.0 2 20
r 1.794885 3 2 ack 40 ------- 2 5.0 1.0 7 19
+ 1.794885 2 1 ack 40 ------- 2 5.0 1.0 7 19
- 1.794885 2 1 ack 40 ------- 2 5.0 1.0 7 19
r 1.804752 6 3 ack 40 ------- 2 5.0 1.0 9 21
+ 1.804752 3 2 ack 40 ------- 2 5.0 1.0 9 21
- 1.804752 3 2 ack 40 ------- 2 5.0 1.0 9 21
r 1.805045 2 1 ack 40 ------- 2 5.0 1.0 7 19
+ 1.805045 1 2 tcp 1040 ------- 2 1.0 5.0 11 22
- 1.805045 1 2 tcp 1040 ------- 2 1.0 5.0 11 22
+ 1.805045 1 2 tcp 1040 ------- 2 1.0 5.0 12 23
+ 1.805045 1 2 tcp 1040 ------- 2 1.0 5.0 13 24
- 1.809205 1 2 tcp 1040 ------- 2 1.0 5.0 12 23
- 1.813365 1 2 tcp 1040 ------- 2 1.0 5.0 13 24
r 1.819205 1 2 tcp 1040 ------- 2 1.0 5.0 11 22
+ 1.819205 2 3 tcp 1040 ------- 2 1.0 5.0 11 22
- 1.819205 2 3 tcp 1040 ------- 2 1.0 5.0 11 22
r 1.823365 1 2 tcp 1040 ------- 2 1.0 5.0 12 23
+ 1.823365 2 3 tcp 1040 ------- 2 1.0 5.0 12 23
r 1.827525 1 2 tcp 1040 ------- 2 1.0 5.0 13 24
+ 1.827525 2 3 tcp 1040 ------- 2 1.0 5.0 13 24
- 1.846939 2 3 tcp 1040 ------- 2 1.0 5.0 12 23
h 1.852481 5 6 ack 40 ------- 2 5.0 1.0 10 25
- 1.874672 2 3 tcp 1040 ------- 2 1.0 5.0 13 24
r 1.878085 3 2 ack 40 ------- 1 4.0 0.0 2 20
+ 1.878085 2 0 ack 40 ------- 1 4.0 0.0 2 20
- 1.878085 2 0 ack 40 ------- 1 4.0 0.0 2 20
r 1.888245 2 0 ack 40 ------- 1 4.0 0.0 2 20
+ 1.888245 0 2 tcp 1040 ------- 1 0.0 4.0 3 26
- 1.888245 0 2 tcp 1040 ------- 1 0.0 4.0 3 26
+ 1.888245 0 2 tcp 1040 ------- 1 0.0 4.0 4 27
+ 1.888245 0 2 tcp 1040 ------- 1 0.0 4.0 5 28
- 1.892405 0 2 tcp 1040 ------- 1 0.0 4.0 4 27
+ 1.892481 5 6 ack 40 ------- 2 5.0 1.0 10 25
- 1.892481 5 6 ack 40 ------- 2 5.0 1.0 10 25
d 1.892485 4 6 ack 40 ------- 2 5.0 1.0 10 25
- 1.896565 0 2 tcp 1040 ------- 1 0.0 4.0 5 28
r 1.902405 0 2 tcp 1040 ------- 1 0.0 4.0 3 26
+ 1.902405 2 3 tcp 1040 ------- 1 0.0 4.0 3 26
- 1.902405 2 3 tcp 1040 ------- 1 0.0 4.0 3 26
r 1.905819 3 2 ack 40 ------- 2 5.0 1.0 9 21
+ 1.905819 2 1 ack 40 ------- 2 5.0 1.0 9 21
- 1.905819 2 1 ack 40 ------- 2 5.0 1.0 9 21
r 1.906565 0 2 tcp 1040 ------- 1 0.0 4.0 4 27
+ 1.906565 2 3 tcp 1040 ------- 1 0.0 4.0 4 27
r 1.910725 0 2 tcp 1040 ------- 1 0.0 4.0 5 28
+ 1.910725 2 3 tcp 1040 ------- 1 0.0 4.0 5 28
r 1.915979 2 1 ack 40 ------- 2 5.0 1.0 9 21
+ 1.915979 1 2 tcp 1040 ------- 2 1.0 5.0 14 29
- 1.915979 1 2 tcp 1040 ------- 2 1.0 5.0 14 29
+ 1.915979 1 2 tcp 1040 ------- 2 1.0 5.0 15 30
+ 1.915979 1 2 tcp 1040 ------- 2 1.0 5.0 16 31
- 1.920139 1 2 tcp 1040 ------- 2 1.0 5.0 15 30
- 1.924299 1 2 tcp 1040 ------- 2 1.0 5.0 16 31
- 1.930139 2 3 tcp 1040 ------- 1 0.0 4.0 4 27
r 1.930139 1 2 tcp 1040 ------- 2 1.0 5.0 14 29
+ 1.930139 2 3 tcp 1040 ------- 2 1.0 5.0 14 29
r 1.932485 6 3 ack 40 ------- 2 5.0 1.0 10 25
+ 1.932485 3 2 ack 40 ------- 2 5.0 1.0 10 25
- 1.932485 3 2 ack 40 ------- 2 5.0 1.0 10 25
r 1.934299 1 2 tcp 1040 ------- 2 1.0 5.0 15 30
+ 1.934299 2 3 tcp 1040 ------- 2 1.0 5.0 15 30
r 1.938459 1 2 tcp 1040 ------- 2 1.0 5.0 16 31
+ 1.938459 2 3 tcp 1040 ------- 2 1.0 5.0 16 31
r 1.946939 2 3 tcp 1040 ------- 2 1.0 5.0 11 22
h 1.946939 3 6 tcp 1040 ------- 2 1.0 5.0 11 22
- 1.957872 2 3 tcp 1040 ------- 1 0.0 4.0 5 28
r 1.974672 2 3 tcp 1040 ------- 2 1.0 5.0 12 23
h 1.974672 3 6 tcp 1040 ------- 2 1.0 5.0 12 23
- 1.985605 2 3 tcp 1040 ------- 2 1.0 5.0 14 29
+ 1.986939 3 6 tcp 1040 ------- 2 1.0 5.0 11 22
- 1.986939 3 6 tcp 1040 ------- 2 1.0 5.0 11 22
d 1.986943 4 6 tcp 1040 ------- 2 1.0 5.0 11 22
r 2.002405 2 3 tcp 1040 ------- 2 1.0 5.0 13 24
h 2.002405 3 6 tcp 1040 ------- 2 1.0 5.0 13 24
- 2.013339 2 3 tcp 1040 ------- 2 1.0 5.0 15 30
+ 2.014672 3 6 tcp 1040 ------- 2 1.0 5.0 12 23
- 2.014672 3 6 tcp 1040 ------- 2 1.0 5.0 12 23
d 2.014676 4 6 tcp 1040 ------- 2 1.0 5.0 12 23
r 2.026943 6 5 tcp 1040 ------- 2 1.0 5.0 11 22
r 2.030139 2 3 tcp 1040 ------- 1 0.0 4.0 3 26
h 2.030139 3 6 tcp 1040 ------- 1 0.0 4.0 3 26
r 2.033552 3 2 ack 40 ------- 2 5.0 1.0 10 25
+ 2.033552 2 1 ack 40 ------- 2 5.0 1.0 10 25
- 2.033552 2 1 ack 40 ------- 2 5.0 1.0 10 25
- 2.041072 2 3 tcp 1040 ------- 2 1.0 5.0 16 31
+ 2.042405 3 6 tcp 1040 ------- 2 1.0 5.0 13 24
- 2.042405 3 6 tcp 1040 ------- 2 1.0 5.0 13 24
d 2.042409 4 6 tcp 1040 ------- 2 1.0 5.0 13 24
r 2.043712 2 1 ack 40 ------- 2 5.0 1.0 10 25
+ 2.043712 1 2 tcp 1040 ------- 2 1.0 5.0 17 32
- 2.043712 1 2 tcp 1040 ------- 2 1.0 5.0 17 32
+ 2.043712 1 2 tcp 1040 ------- 2 1.0 5.0 18 33
- 2.047872 1 2 tcp 1040 ------- 2 1.0 5.0 18 33
r 2.054676 6 5 tcp 1040 ------- 2 1.0 5.0 12 23
h 2.054676 5 6 ack 40 ------- 2 5.0 1.0 12 34
r 2.057872 2 3 tcp 1040 ------- 1 0.0 4.0 4 27
h 2.057872 3 6 tcp 1040 ------- 1 0.0 4.0 4 27
r 2.057872 1 2 tcp 1040 ------- 2 1.0 5.0 17 32
+ 2.057872 2 3 tcp 1040 ------- 2 1.0 5.0 17 32
r 2.062032 1 2 tcp 1040 ------- 2 1.0 5.0 18 33
+ 2.062032 2 3 tcp 1040 ------- 2 1.0 5.0 18 33
- 2.068805 2 3 tcp 1040 ------- 2 1.0 5.0 17 32
+ 2.070139 3 6 tcp 1040 ------- 1 0.0 4.0 3 26
- 2.070139 3 6 tcp 1040 ------- 1 0.0 4.0 3 26
d 2.070143 5 6 tcp 1040 ------- 1 0.0 4.0 3 26
r 2.082409 6 5 tcp 1040 ------- 2 1.0 5.0 13 24
r 2.085605 2 3 tcp 1040 ------- 1 0.0 4.0 5 28
h 2.085605 3 6 tcp 1040 ------- 1 0.0 4.0 5 28
+ 2.094676 5 6 ack 40 ------- 2 5.0 1.0 12 34
- 2.094676 5 6 ack 40 ------- 2 5.0 1.0 12 34
d 2.09468 4 6 ack 40 ------- 2 5.0 1.0 12 34
- 2.096539 2 3 tcp 1040 ------- 2 1.0 5.0 18 33
+ 2.097872 3 6 tcp 1040 ------- 1 0.0 4.0 4 27
- 2.097872 3 6 tcp 1040 ------- 1 0.0 4.0 4 27
d 2.097876 5 6 tcp 1040 ------- 1 0.0 4.0 4 27
r 2.110143 6 4 tcp 1040 ------- 1 0.0 4.0 3 26
r 2.113339 2 3 tcp 1040 ------- 2 1.0 5.0 14 29
h 2.113339 3 6 tcp 1040 ------- 2 1.0 5.0 14 29
+ 2.125605 3 6 tcp 1040 ------- 1 0.0 4.0 5 28
- 2.125605 3 6 tcp 1040 ------- 1 0.0 4.0 5 28
d 2.125609 5 6 tcp 1040 ------- 1 0.0 4.0 5 28
r 2.13468 6 3 ack 40 ------- 2 5.0 1.0 12 34
+ 2.13468 3 2 ack 40 ------- 2 5.0 1.0 12 34
- 2.13468 3 2 ack 40 ------- 2 5.0 1.0 12 34
r 2.137876 6 4 tcp 1040 ------- 1 0.0 4.0 4 27
h 2.137876 4 6 ack 40 ------- 1 4.0 0.0 4 35
r 2.141072 2 3 tcp 1040 ------- 2 1.0 5.0 15 30
h 2.141072 3 6 tcp 1040 ------- 2 1.0 5.0 15 30
+ 2.153339 3 6 tcp 1040 ------- 2 1.0 5.0 14 29
- 2.153339 3 6 tcp 1040 ------- 2 1.0 5.0 14 29
d 2.153343 4 6 tcp 1040 ------- 2 1.0 5.0 14 29
r 2.165609 6 4 tcp 1040 ------- 1 0.0 4.0 5 28
r 2.168805 2 3 tcp 1040 ------- 2 1.0 5.0 16 31
h 2.168805 3 6 tcp 1040 ------- 2 1.0 5.0 16 31
+ 2.177876 4 6 ack 40 ------- 1 4.0 0.0 4 35
- 2.177876 4 6 ack 40 ------- 1 4.0 0.0 4 35
d 2.17788 5 6 ack 40 ------- 1 4.0 0.0 4 35
+ 2.181072 3 6 tcp 1040 ------- 2 1.0 5.0 15 30
- 2.181072 3 6 tcp 1040 ------- 2 1.0 5.0 15 30
d 2.181076 4 6 tcp 1040 ------- 2 1.0 5.0 15 30
h 2.182409 5 6 ack 40 ------- 2 5.0 1.0 13 36
r 2.193343 6 5 tcp 1040 ------- 2 1.0 5.0 14 29
r 2.196539 2 3 tcp 1040 ------- 2 1.0 5.0 17 32
h 2.196539 3 6 tcp 1040 ------- 2 1.0 5.0 17 32
+ 2.208805 3 6 tcp 1040 ------- 2 1.0 5.0 16 31
- 2.208805 3 6 tcp 1040 ------- 2 1.0 5.0 16 31
d 2.208809 4 6 tcp 1040 ------- 2 1.0 5.0 16 31
r 2.21788 6 3 ack 40 ------- 1 4.0 0.0 4 35
+ 2.21788 3 2 ack 40 ------- 1 4.0 0.0 4 35
- 2.21788 3 2 ack 40 ------- 1 4.0 0.0 4 35
r 2.221076 6 5 tcp 1040 ------- 2 1.0 5.0 15 30
h 2.221076 5 6 ack 40 ------- 2 5.0 1.0 15 37
+ 2.222409 5 6 ack 40 ------- 2 5.0 1.0 13 36
- 2.222409 5 6 ack 40 ------- 2 5.0 1.0 13 36
d 2.222413 4 6 ack 40 ------- 2 5.0 1.0 13 36
r 2.224272 2 3 tcp 1040 ------- 2 1.0 5.0 18 33
h 2.224272 3 6 tcp 1040 ------- 2 1.0 5.0 18 33
r 2.235747 3 2 ack 40 ------- 2 5.0 1.0 12 34
+ 2.235747 2 1 ack 40 ------- 2 5.0 1.0 12 34
- 2.235747 2 1 ack 40 ------- 2 5.0 1.0 12 34
+ 2.236539 3 6 tcp 1040 ------- 2 1.0 5.0 17 32
- 2.236539 3 6 tcp 1040 ------- 2 1.0 5.0 17 32
d 2.236543 4 6 tcp 1040 ------- 2 1.0 5.0 17 32
r 2.245907 2 1 ack 40 ------- 2 5.0 1.0 12 34
+ 2.245907 1 2 tcp 1040 ------- 2 1.0 5.0 19 38
- 2.245907 1 2 tcp 1040 ------- 2 1.0 5.0 19 38
+ 2.245907 1 2 tcp 1040 ------- 2 1.0 5.0 20 39
+ 2.245907 1 2 tcp 1040 ------- 2 1.0 5.0 21 40
r 2.248809 6 5 tcp 1040 ------- 2 1.0 5.0 16 31
- 2.250067 1 2 tcp 1040 ------- 2 1.0 5.0 20 39
- 2.254227 1 2 tcp 1040 ------- 2 1.0 5.0 21 40
r 2.260067 1 2 tcp 1040 ------- 2 1.0 5.0 19 38
+ 2.260067 2 3 tcp 1040 ------- 2 1.0 5.0 19 38
- 2.260067 2 3 tcp 1040 ------- 2 1.0 5.0 19 38
+ 2.261076 5 6 ack 40 ------- 2 5.0 1.0 15 37
- 2.261076 5 6 ack 40 ------- 2 5.0 1.0 15 37
d 2.26108 4 6 ack 40 ------- 2 5.0 1.0 15 37
r 2.262413 6 3 ack 40 ------- 2 5.0 1.0 13 36
+ 2.262413 3 2 ack 40 ------- 2 5.0 1.0 13 36
- 2.262413 3 2 ack 40 ------- 2 5.0 1.0 13 36
r 2.264227 1 2 tcp 1040 ------- 2 1.0 5.0 20 39
+ 2.264227 2 3 tcp 1040 ------- 2 1.0 5.0 20 39
+ 2.264272 3 6 tcp 1040 ------- 2 1.0 5.0 18 33
- 2.264272 3 6 tcp 1040 ------- 2 1.0 5.0 18 33
d 2.264276 4 6 tcp 1040 ------- 2 1.0 5.0 18 33
h 2.265609 4 6 ack 40 ------- 1 4.0 0.0 5 41
r 2.268387 1 2 tcp 1040 ------- 2 1.0 5.0 21 40
+ 2.268387 2 3 tcp 1040 ------- 2 1.0 5.0 21 40
r 2.276543 6 5 tcp 1040 ------- 2 1.0 5.0 17 32
h 2.276543 5 6 ack 40 ------- 2 5.0 1.0 17 42
- 2.2878 2 3 tcp 1040 ------- 2 1.0 5.0 20 39
r 2.30108 6 3 ack 40 ------- 2 5.0 1.0 15 37
+ 2.30108 3 2 ack 40 ------- 2 5.0 1.0 15 37
- 2.30108 3 2 ack 40 ------- 2 5.0 1.0 15 37
r 2.304276 6 5 tcp 1040 ------- 2 1.0 5.0 18 33
+ 2.305609 4 6 ack 40 ------- 1 4.0 0.0 5 41
- 2.305609 4 6 ack 40 ------- 1 4.0 0.0 5 41
d 2.305613 5 6 ack 40 ------- 1 4.0 0.0 5 41
- 2.315533 2 3 tcp 1040 ------- 2 1.0 5.0 21 40
+ 2.316543 5 6 ack 40 ------- 2 5.0 1.0 17 42
- 2.316543 5 6 ack 40 ------- 2 5.0 1.0 17 42
d 2.316547 4 6 ack 40 ------- 2 5.0 1.0 17 42
r 2.318947 3 2 ack 40 ------- 1 4.0 0.0 4 35
+ 2.318947 2 0 ack 40 ------- 1 4.0 0.0 4 35
- 2.318947 2 0 ack 40 ------- 1 4.0 0.0 4 35
r 2.329107 2 0 ack 40 ------- 1 4.0 0.0 4 35
+ 2.329107 0 2 tcp 1040 ------- 1 0.0 4.0 6 43
- 2.329107 0 2 tcp 1040 ------- 1 0.0 4.0 6 43
+ 2.329107 0 2 tcp 1040 ------- 1 0.0 4.0 7 44
+ 2.329107 0 2 tcp 1040 ------- 1 0.0 4.0 8 45
- 2.333267 0 2 tcp 1040 ------- 1 0.0 4.0 7 44
- 2.337427 0 2 tcp 1040 ------- 1 0.0 4.0 8 45
r 2.343267 0 2 tcp 1040 ------- 1 0.0 4.0 6 43
+ 2.343267 2 3 tcp 1040 ------- 1 0.0 4.0 6 43
- 2.343267 2 3 tcp 1040 ------- 1 0.0 4.0 6 43
r 2.345613 6 3 ack 40 ------- 1 4.0 0.0 5 41
+ 2.345613 3 2 ack 40 ------- 1 4.0 0.0 5 41
- 2.345613 3 2 ack 40 ------- 1 4.0 0.0 5 41
r 2.347427 0 2 tcp 1040 ------- 1 0.0 4.0 7 44
+ 2.347427 2 3 tcp 1040 ------- 1 0.0 4.0 7 44
r 2.351587 0 2 tcp 1040 ------- 1 0.0 4.0 8 45
+ 2.351587 2 3 tcp 1040 ------- 1 0.0 4.0 8 45
r 2.356547 6 3 ack 40 ------- 2 5.0 1.0 17 42
+ 2.356547 3 2 ack 40 ------- 2 5.0 1.0 17 42
- 2.356547 3 2 ack 40 ------- 2 5.0 1.0 17 42
r 2.36348 3 2 ack 40 ------- 2 5.0 1.0 13 36
+ 2.36348 2 1 ack 40 ------- 2 5.0 1.0 13 36
- 2.36348 2 1 ack 40 ------- 2 5.0 1.0 13 36
- 2.371 2 3 tcp 1040 ------- 1 0.0 4.0 7 44
r 2.37364 2 1 ack 40 ------- 2 5.0 1.0 13 36
+ 2.37364 1 2 tcp 1040 ------- 2 1.0 5.0 22 46
- 2.37364 1 2 tcp 1040 ------- 2 1.0 5.0 22 46
+ 2.37364 1 2 tcp 1040 ------- 2 1.0 5.0 23 47
- 2.3778 1 2 tcp 1040 ------- 2 1.0 5.0 23 47
r 2.3878 2 3 tcp 1040 ------- 2 1.0 5.0 19 38
h 2.3878 3 6 tcp 1040 ------- 2 1.0 5.0 19 38
r 2.3878 1 2 tcp 1040 ------- 2 1.0 5.0 22 46
+ 2.3878 2 3 tcp 1040 ------- 2 1.0 5.0 22 46
r 2.39196 1 2 tcp 1040 ------- 2 1.0 5.0 23 47
+ 2.39196 2 3 tcp 1040 ------- 2 1.0 5.0 23 47
- 2.398733 2 3 tcp 1040 ------- 1 0.0 4.0 8 45
r 2.402147 3 2 ack 40 ------- 2 5.0 1.0 15 37
+ 2.402147 2 1 ack 40 ------- 2 5.0 1.0 15 37
- 2.402147 2 1 ack 40 ------- 2 5.0 1.0 15 37
h 2.404276 5 6 ack 40 ------- 2 5.0 1.0 18 48
r 2.412307 2 1 ack 40 ------- 2 5.0 1.0 15 37
+ 2.412307 1 2 tcp 1040 ------- 2 1.0 5.0 24 49
- 2.412307 1 2 tcp 1040 ------- 2 1.0 5.0 24 49
+ 2.412307 1 2 tcp 1040 ------- 2 1.0 5.0 25 50
+ 2.412307 1 2 tcp 1040 ------- 2 1.0 5.0 26 51
r 2.415533 2 3 tcp 1040 ------- 2 1.0 5.0 20 39
h 2.415533 3 6 tcp 1040 ------- 2 1.0 5.0 20 39
- 2.416467 1 2 tcp 1040 ------- 2 1.0 5.0 25 50
- 2.420627 1 2 tcp 1040 ------- 2 1.0 5.0 26 51
- 2.426467 2 3 tcp 1040 ------- 2 1.0 5.0 22 46
r 2.426467 1 2 tcp 1040 ------- 2 1.0 5.0 24 49
+ 2.426467 2 3 tcp 1040 ------- 2 1.0 5.0 24 49
+ 2.4278 3 6 tcp 1040 ------- 2 1.0 5.0 19 38
- 2.4278 3 6 tcp 1040 ------- 2 1.0 5.0 19 38
d 2.427804 4 6 tcp 1040 ------- 2 1.0 5.0 19 38
r 2.430627 1 2 tcp 1040 ------- 2 1.0 5.0 25 50
+ 2.430627 2 3 tcp 1040 ------- 2 1.0 5.0 25 50
r 2.434787 1 2 tcp 1040 ------- 2 1.0 5.0 26 51
+ 2.434787 2 3 tcp 1040 ------- 2 1.0 5.0 26 51
r 2.443267 2 3 tcp 1040 ------- 2 1.0 5.0 21 40
h 2.443267 3 6 tcp 1040 ------- 2 1.0 5.0 21 40
+ 2.444276 5 6 ack 40 ------- 2 5.0 1.0 18 48
- 2.444276 5 6 ack 40 ------- 2 5.0 1.0 18 48
d 2.44428 4 6 ack 40 ------- 2 5.0 1.0 18 48
r 2.44668 3 2 ack 40 ------- 1 4.0 0.0 5 41
+ 2.44668 2 0 ack 40 ------- 1 4.0 0.0 5 41
- 2.44668 2 0 ack 40 ------- 1 4.0 0.0 5 41
- 2.4542 2 3 tcp 1040 ------- 2 1.0 5.0 23 47
+ 2.455533 3 6 tcp 1040 ------- 2 1.0 5.0 20 39
- 2.455533 3 6 tcp 1040 ------- 2 1.0 5.0 20 39
d 2.455537 4 6 tcp 1040 ------- 2 1.0 5.0 20 39
r 2.45684 2 0 ack 40 ------- 1 4.0 0.0 5 41
+ 2.45684 0 2 tcp 1040 ------- 1 0.0 4.0 9 52
- 2.45684 0 2 tcp 1040 ------- 1 0.0 4.0 9 52
+ 2.45684 0 2 tcp 1040 ------- 1 0.0 4.0 10 53
r 2.457613 3 2 ack 40 ------- 2 5.0 1.0 17 42
+ 2.457613 2 1 ack 40 ------- 2 5.0 1.0 17 42
- 2.457613 2 1 ack 40 ------- 2 5.0 1.0 17 42
- 2.461 0 2 tcp 1040 ------- 1 0.0 4.0 10 53
r 2.467773 2 1 ack 40 ------- 2 5.0 1.0 17 42
+ 2.467773 1 2 tcp 1040 ------- 2 1.0 5.0 27 54
- 2.467773 1 2 tcp 1040 ------- 2 1.0 5.0 27 54
+ 2.467773 1 2 tcp 1040 ------- 2 1.0 5.0 28 55
+ 2.467773 1 2 tcp 1040 ------- 2 1.0 5.0 29 56
r 2.467804 6 5 tcp 1040 ------- 2 1.0 5.0 19 38
r 2.471 2 3 tcp 1040 ------- 1 0.0 4.0 6 43
h 2.471 3 6 tcp 1040 ------- 1 0.0 4.0 6 43
r 2.471 0 2 tcp 1040 ------- 1 0.0 4.0 9 52
+ 2.471 2 3 tcp 1040 ------- 1 0.0 4.0 9 52
- 2.471933 1 2 tcp 1040 ------- 2 1.0 5.0 28 55
r 2.47516 0 2 tcp 1040 ------- 1 0.0 4.0 10 53
+ 2.47516 2 3 tcp 1040 ------- 1 0.0 4.0 10 53
- 2.476093 1 2 tcp 1040 ------- 2 1.0 5.0 29 56
- 2.481933 2 3 tcp 1040 ------- 2 1.0 5.0 24 49
r 2.481933 1 2 tcp 1040 ------- 2 1.0 5.0 27 54
+ 2.481933 2 3 tcp 1040 ------- 2 1.0 5.0 27 54
+ 2.483267 3 6 tcp 1040 ------- 2 1.0 5.0 21 40
- 2.483267 3 6 tcp 1040 ------- 2 1.0 5.0 21 40
d 2.483271 4 6 tcp 1040 ------- 2 1.0 5.0 21 40
r 2.48428 6 3 ack 40 ------- 2 5.0 1.0 18 48
+ 2.48428 3 2 ack 40 ------- 2 5.0 1.0 18 48
- 2.48428 3 2 ack 40 ------- 2 5.0 1.0 18 48
r 2.486093 1 2 tcp 1040 ------- 2 1.0 5.0 28 55
+ 2.486093 2 3 tcp 1040 ------- 2 1.0 5.0 28 55
r 2.490253 1 2 tcp 1040 ------- 2 1.0 5.0 29 56
+ 2.490253 2 3 tcp 1040 ------- 2 1.0 5.0 29 56
r 2.495537 6 5 tcp 1040 ------- 2 1.0 5.0 20 39
h 2.495537 5 6 ack 40 ------- 2 5.0 1.0 20 57
r 2.498733 2 3 tcp 1040 ------- 1 0.0 4.0 7 44
h 2.498733 3 6 tcp 1040 ------- 1 0.0 4.0 7 44
- 2.509667 2 3 tcp 1040 ------- 2 1.0 5.0 25 50
+ 2.511 3 6 tcp 1040 ------- 1 0.0 4.0 6 43
- 2.511 3 6 tcp 1040 ------- 1 0.0 4.0 6 43
d 2.511004 5 6 tcp 1040 ------- 1 0.0 4.0 6 43
r 2.523271 6 5 tcp 1040 ------- 2 1.0 5.0 21 40
r 2.526467 2 3 tcp 1040 ------- 1 0.0 4.0 8 45
h 2.526467 3 6 tcp 1040 ------- 1 0.0 4.0 8 45
+ 2.535537 5 6 ack 40 ------- 2 5.0 1.0 20 57
- 2.535537 5 6 ack 40 ------- 2 5.0 1.0 20 57
d 2.535541 4 6 ack 40 ------- 2 5.0 1.0 20 57
- 2.5374 2 3 tcp 1040 ------- 2 1.0 5.0 26 51
+ 2.538733 3 6 tcp 1040 ------- 1 0.0 4.0 7 44
- 2.538733 3 6 tcp 1040 ------- 1 0.0 4.0 7 44
d 2.538737 5 6 tcp 1040 ------- 1 0.0 4.0 7 44
r 2.551004 6 4 tcp 1040 ------- 1 0.0 4.0 6 43
r 2.5542 2 3 tcp 1040 ------- 2 1.0 5.0 22 46
h 2.5542 3 6 tcp 1040 ------- 2 1.0 5.0 22 46
- 2.565133 2 3 tcp 1040 ------- 1 0.0 4.0 9 52
+ 2.566467 3 6 tcp 1040 ------- 1 0.0 4.0 8 45
- 2.566467 3 6 tcp 1040 ------- 1 0.0 4.0 8 45
d 2.566471 5 6 tcp 1040 ------- 1 0.0 4.0 8 45
r 2.575541 6 3 ack 40 ------- 2 5.0 1.0 20 57
+ 2.575541 3 2 ack 40 ------- 2 5.0 1.0 20 57
- 2.575541 3 2 ack 40 ------- 2 5.0 1.0 20 57
r 2.578737 6 4 tcp 1040 ------- 1 0.0 4.0 7 44
h 2.578737 4 6 ack 40 ------- 1 4.0 0.0 7 58
r 2.581933 2 3 tcp 1040 ------- 2 1.0 5.0 23 47
h 2.581933 3 6 tcp 1040 ------- 2 1.0 5.0 23 47
r 2.585347 3 2 ack 40 ------- 2 5.0 1.0 18 48
+ 2.585347 2 1 ack 40 ------- 2 5.0 1.0 18 48
- 2.585347 2 1 ack 40 ------- 2 5.0 1.0 18 48
- 2.592867 2 3 tcp 1040 ------- 1 0.0 4.0 10 53
+ 2.5942 3 6 tcp 1040 ------- 2 1.0 5.0 22 46
- 2.5942 3 6 tcp 1040 ------- 2 1.0 5.0 22 46
d 2.594204 4 6 tcp 1040 ------- 2 1.0 5.0 22 46
r 2.595507 2 1 ack 40 ------- 2 5.0 1.0 18 48
+ 2.595507 1 2 tcp 1040 ------- 2 1.0 5.0 30 59
- 2.595507 1 2 tcp 1040 ------- 2 1.0 5.0 30 59
+ 2.595507 1 2 tcp 1040 ------- 2 1.0 5.0 31 60
- 2.599667 1 2 tcp 1040 ------- 2 1.0 5.0 31 60
r 2.606471 6 4 tcp 1040 ------- 1 0.0 4.0 8 45
r 2.609667 2 3 tcp 1040 ------- 2 1.0 5.0 24 49
h 2.609667 3 6 tcp 1040 ------- 2 1.0 5.0 24 49
r 2.609667 1 2 tcp 1040 ------- 2 1.0 5.0 30 59
+ 2.609667 2 3 tcp 1040 ------- 2 1.0 5.0 30 59
r 2.613827 1 2 tcp 1040 ------- 2 1.0 5.0 31 60
+ 2.613827 2 3 tcp 1040 ------- 2 1.0 5.0 31 60
+ 2.618737 4 6 ack 40 ------- 1 4.0 0.0 7 58
- 2.618737 4 6 ack 40 ------- 1 4.0 0.0 7 58
d 2.618741 5 6 ack 40 ------- 1 4.0 0.0 7 58
- 2.6206 2 3 tcp 1040 ------- 2 1.0 5.0 27 54
+ 2.621933 3 6 tcp 1040 ------- 2 1.0 5.0 23 47
- 2.621933 3 6 tcp 1040 ------- 2 1.0 5.0 23 47
d 2.621937 4 6 tcp 1040 ------- 2 1.0 5.0 23 47
h 2.623271 5 6 ack 40 ------- 2 5.0 1.0 21 61
r 2.634204 6 5 tcp 1040 ------- 2 1.0 5.0 22 46
r 2.6374 2 3 tcp 1040 ------- 2 1.0 5.0 25 50
h 2.6374 3 6 tcp 1040 ------- 2 1.0 5.0 25 50
- 2.648333 2 3 tcp 1040 ------- 2 1.0 5.0 28 55
+ 2.649667 3 6 tcp 1040 ------- 2 1.0 5.0 24 49
- 2.649667 3 6 tcp 1040 ------- 2 1.0 5.0 24 49
d 2.649671 4 6 tcp 1040 ------- 2 1.0 5.0 24 49
r 2.658741 6 3 ack 40 ------- 1 4.0 0.0 7 58
+ 2.658741 3 2 ack 40 ------- 1 4.0 0.0 7 58
- 2.658741 3 2 ack 40 ------- 1 4.0 0.0 7 58
r 2.661937 6 5 tcp 1040 ------- 2 1.0 5.0 23 47
h 2.661937 5 6 ack 40 ------- 2 5.0 1.0 23 62
+ 2.663271 5 6 ack 40 ------- 2 5.0 1.0 21 61
- 2.663271 5 6 ack 40 ------- 2 5.0 1.0 21 61
d 2.663275 4 6 ack 40 ------- 2 5.0 1.0 21 61
r 2.665133 2 3 tcp 1040 ------- 2 1.0 5.0 26 51
h 2.665133 3 6 tcp 1040 ------- 2 1.0 5.0 26 51
- 2.676067 2 3 tcp 1040 ------- 2 1.0 5.0 29 56
r 2.676608 3 2 ack 40 ------- 2 5.0 1.0 20 57
+ 2.676608 2 1 ack 40 ------- 2 5.0 1.0 20 57
- 2.676608 2 1 ack 40 ------- 2 5.0 1.0 20 57
+ 2.6774 3 6 tcp 1040 ------- 2 1.0 5.0 25 50
- 2.6774 3 6 tcp 1040 ------- 2 1.0 5.0 25 50
d 2.677404 4 6 tcp 1040 ------- 2 1.0 5.0 25 50
r 2.686768 2 1 ack 40 ------- 2 5.0 1.0 20 57
+ 2.686768 1 2 tcp 1040 ------- 2 1.0 5.0 32 63
- 2.686768 1 2 tcp 1040 ------- 2 1.0 5.0 32 63
+ 2.686768 1 2 tcp 1040 ------- 2 1.0 5.0 33 64
+ 2.686768 1 2 tcp 1040 ------- 2 1.0 5.0 34 65
r 2.689671 6 5 tcp 1040 ------- 2 1.0 5.0 24 49
- 2.690928 1 2 tcp 1040 ------- 2 1.0 5.0 33 64
r 2.692867 2 3 tcp 1040 ------- 1 0.0 4.0 9 52
h 2.692867 3 6 tcp 1040 ------- 1 0.0 4.0 9 52
- 2.695088 1 2 tcp 1040 ------- 2 1.0 5.0 34 65
r 2.700928 1 2 tcp 1040 ------- 2 1.0 5.0 32 63
+ 2.700928 2 3 tcp 1040 ------- 2 1.0 5.0 32 63
+ 2.701937 5 6 ack 40 ------- 2 5.0 1.0 23 62
- 2.701937 5 6 ack 40 ------- 2 5.0 1.0 23 62
d 2.701941 4 6 ack 40 ------- 2 5.0 1.0 23 62
r 2.703275 6 3 ack 40 ------- 2 5.0 1.0 21 61
+ 2.703275 3 2 ack 40 ------- 2 5.0 1.0 21 61
- 2.703275 3 2 ack 40 ------- 2 5.0 1.0 21 61
- 2.7038 2 3 tcp 1040 ------- 2 1.0 5.0 30 59
r 2.705088 1 2 tcp 1040 ------- 2 1.0 5.0 33 64
+ 2.705088 2 3 tcp 1040 ------- 2 1.0 5.0 33 64
+ 2.705133 3 6 tcp 1040 ------- 2 1.0 5.0 26 51
- 2.705133 3 6 tcp 1040 ------- 2 1.0 5.0 26 51
d 2.705137 4 6 tcp 1040 ------- 2 1.0 5.0 26 51
h 2.706471 4 6 ack 40 ------- 1 4.0 0.0 8 66