V -t * -v 1.0a5 -a 0
A -t * -n 1 -p 0 -o 0x7fffffff -c 30 -a 1
A -t * -h 1 -m 1073741823 -s 0
c -t * -i 1 -n Blue
c -t * -i 2 -n Red
n -t * -a 4 -s 4 -S UP -v circle -c black -i black
n -t * -a 0 -s 0 -S UP -v circle -c black -i black
n -t * -a 5 -s 5 -S UP -v circle -c black -i black
n -t * -a 1 -s 1 -S UP -v box -c red -i red
n -t * -a 2 -s 2 -S UP -v circle -c black -i black
n -t * -a 3 -s 3 -S UP -v circle -c black -i black
l -t * -s 2 -d 3 -S UP -r 300000 -D 0.10000000000000001 -c black -o right
X -t * -n 6 -r 0.5Mb -D 40ms -o left
L -t * -s 6 -d 0 -o up
L -t * -s 6 -d 1 -o down
L -t * -s 6 -d 2 -o up
X -t * -n 7 -r 0.5Mb -D 40ms -o left
L -t * -s 7 -d 3 -o up
L -t * -s 7 -d 4 -o down
L -t * -s 7 -d 5 -o up
h -t 0 -s 0 -d 6 -p tcp -e 40 -c 1 -i 0 -a 1 -x {0.0 4.0 0 ------- null}
+ -t 0.04 -s 0 -d 6 -p tcp -e 40 -c 1 -i 0 -a 1 -x {0.0 4.0 0 ------- null}
- -t 0.04 -s 0 -d 6 -p tcp -e 40 -c 1 -i 0 -a 1 -x {0.0 4.0 0 ------- null}
h -t 0.04 -s 0 -d 6 -p tcp -e 40 -c 1 -i 0 -a 1 -x {0.0 4.0 -1 ------- null}
d -t 0.040004 -s 1 -d 6 -p tcp -e 40 -c 1 -i 0 -a 1 -x {0.0 4.0 0 ------- null}
r -t 0.080004 -s 6 -d 2 -p tcp -e 40 -c 1 -i 0 -a 1 -x {0.0 4.0 0 ------- null}
+ -t 0.080004 -s 2 -d 3 -p tcp -e 40 -c 1 -i 0 -a 1 -x {0.0 4.0 0 ------- null}
- -t 0.080004 -s 2 -d 3 -p tcp -e 40 -c 1 -i 0 -a 1 -x {0.0 4.0 0 ------- null}
h -t 0.080004 -s 2 -d 3 -p tcp -e 40 -c 1 -i 0 -a 1 -x {0.0 4.0 -1 ------- null}
r -t 0.181070666666667 -s 2 -d 3 -p tcp -e 40 -c 1 -i 0 -a 1 -x {0.0 4.0 0 ------- null}
h -t 0.181070666666667 -s 3 -d 7 -p tcp -e 40 -c 1 -i 0 -a 1 -x {0.0 4.0 0 ------- null}
+ -t 0.221070666666667 -s 3 -d 7 -p tcp -e 40 -c 1 -i 0 -a 1 -x {0.0 4.0 0 ------- null}
- -t 0.221070666666667 -s 3 -d 7 -p tcp -e 40 -c 1 -i 0 -a 1 -x {0.0 4.0 0 ------- null}
h -t 0.221070666666667 -s 3 -d 7 -p tcp -e 40 -c 1 -i 0 -a 1 -x {0.0 4.0 -1 ------- null}
d -t 0.221074666666667 -s 5 -d 7 -p tcp -e 40 -c 1 -i 0 -a 1 -x {0.0 4.0 0 ------- null}
r -t 0.261074666666667 -s 7 -d 4 -p tcp -e 40 -c 1 -i 0 -a 1 -x {0.0 4.0 0 ------- null}
h -t 0.261074666666667 -s 4 -d 7 -p ack -e 40 -c 1 -i 1 -a 1 -x {4.0 0.0 0 ------- null}
+ -t 0.301074666666667 -s 4 -d 7 -p ack -e 40 -c 1 -i 1 -a 1 -x {4.0 0.0 0 ------- null}
- -t 0.301074666666667 -s 4 -d 7 -p ack -e 40 -c 1 -i 1 -a 1 -x {4.0 0.0 0 ------- null}
h -t 0.301074666666667 -s 4 -d 7 -p ack -e 40 -c 1 -i 1 -a 1 -x {4.0 0.0 -1 ------- null}
d -t 0.301078666666667 -s 5 -d 7 -p ack -e 40 -c 1 -i 1 -a 1 -x {4.0 0.0 0 ------- null}
r -t 0.341078666666667 -s 7 -d 3 -p ack -e 40 -c 1 -i 1 -a 1 -x {4.0 0.0 0 ------- null}
+ -t 0.341078666666667 -s 3 -d 2 -p ack -e 40 -c 1 -i 1 -a 1 -x {4.0 0.0 0 ------- null}
- -t 0.341078666666667 -s 3 -d 2 -p ack -e 40 -c 1 -i 1 -a 1 -x {4.0 0.0 0 ------- null}
h -t 0.341078666666667 -s 3 -d 2 -p ack -e 40 -c 1 -i 1 -a 1 -x {4.0 0.0 -1 ------- null}
r -t 0.442145333333333 -s 3 -d 2 -p ack -e 40 -c 1 -i 1 -a 1 -x {4.0 0.0 0 ------- null}
h -t 0.442145333333333 -s 2 -d 6 -p ack -e 40 -c 1 -i 1 -a 1 -x {4.0 0.0 0 ------- null}
+ -t 0.482145333333333 -s 2 -d 6 -p ack -e 40 -c 1 -i 1 -a 1 -x {4.0 0.0 0 ------- null}
- -t 0.482145333333333 -s 2 -d 6 -p ack -e 40 -c 1 -i 1 -a 1 -x {4.0 0.0 0 ------- null}
h -t 0.482145333333333 -s 2 -d 6 -p ack -e 40 -c 1 -i 1 -a 1 -x {4.0 0.0 -1 ------- null}
d -t 0.482149333333333 -s 1 -d 6 -p ack -e 40 -c 1 -i 1 -a 1 -x {4.0 0.0 0 ------- null}
r -t 0.522149333333333 -s 6 -d 0 -p ack -e 40 -c 1 -i 1 -a 1 -x {4.0 0.0 0 ------- null}
h -t 0.522149333333333 -s 0 -d 6 -p tcp -e 592 -c 1 -i 2 -a 1 -x {0.0 4.0 1 ------- null}
h -t 0.522149333333333 -s 0 -d 6 -p tcp -e 592 -c 1 -i 3 -a 1 -x {0.0 4.0 2 ------- null}
+ -t 0.562149333333333 -s 0 -d 6 -p tcp -e 592 -c 1 -i 2 -a 1 -x {0.0 4.0 1 ------- null}
- -t 0.562149333333333 -s 0 -d 6 -p tcp -e 592 -c 1 -i 2 -a 1 -x {0.0 4.0 1 ------- null}
h -t 0.562149333333333 -s 0 -d 6 -p tcp -e 592 -c 1 -i 2 -a 1 -x {0.0 4.0 -1 ------- null}
+ -t 0.562149333333333 -s 0 -d 6 -p tcp -e 592 -c 1 -i 3 -a 1 -x {0.0 4.0 2 ------- null}
d -t 0.562153333333333 -s 1 -d 6 -p tcp -e 592 -c 1 -i 2 -a 1 -x {0.0 4.0 1 ------- null}
- -t 0.564773333333333 -s 0 -d 6 -p tcp -e 592 -c 1 -i 3 -a 1 -x {0.0 4.0 2 ------- null}
h -t 0.564773333333333 -s 0 -d 6 -p tcp -e 592 -c 1 -i 3 -a 1 -x {0.0 4.0 -1 ------- null}
d -t 0.564777333333333 -s 1 -d 6 -p tcp -e 592 -c 1 -i 3 -a 1 -x {0.0 4.0 2 ------- null}
r -t 0.602153333333333 -s 6 -d 2 -p tcp -e 592 -c 1 -i 2 -a 1 -x {0.0 4.0 1 ------- null}
+ -t 0.602153333333333 -s 2 -d 3 -p tcp -e 592 -c 1 -i 2 -a 1 -x {0.0 4.0 1 ------- null}
- -t 0.602153333333333 -s 2 -d 3 -p tcp -e 592 -c 1 -i 2 -a 1 -x {0.0 4.0 1 ------- null}
h -t 0.602153333333333 -s 2 -d 3 -p tcp -e 592 -c 1 -i 2 -a 1 -x {0.0 4.0 -1 ------- null}
r -t 0.604777333333333 -s 6 -d 2 -p tcp -e 592 -c 1 -i 3 -a 1 -x {0.0 4.0 2 ------- null}
+ -t 0.604777333333333 -s 2 -d 3 -p tcp -e 592 -c 1 -i 3 -a 1 -x {0.0 4.0 2 ------- null}
- -t 0.61794 -s 2 -d 3 -p tcp -e 592 -c 1 -i 3 -a 1 -x {0.0 4.0 2 ------- null}
h -t 0.61794 -s 2 -d 3 -p tcp -e 592 -c 1 -i 3 -a 1 -x {0.0 4.0 -1 ------- null}
r -t 0.71794 -s 2 -d 3 -p tcp -e 592 -c 1 -i 2 -a 1 -x {0.0 4.0 1 ------- null}
h -t 0.71794 -s 3 -d 7 -p tcp -e 592 -c 1 -i 2 -a 1 -x {0.0 4.0 1 ------- null}
r -t 0.733726666666667 -s 2 -d 3 -p tcp -e 592 -c 1 -i 3 -a 1 -x {0.0 4.0 2 ------- null}
h -t 0.733726666666667 -s 3 -d 7 -p tcp -e 592 -c 1 -i 3 -a 1 -x {0.0 4.0 2 ------- null}
+ -t 0.75794 -s 3 -d 7 -p tcp -e 592 -c 1 -i 2 -a 1 -x {0.0 4.0 1 ------- null}
- -t 0.75794 -s 3 -d 7 -p tcp -e 592 -c 1 -i 2 -a 1 -x {0.0 4.0 1 ------- null}
h -t 0.75794 -s 3 -d 7 -p tcp -e 592 -c 1 -i 2 -a 1 -x {0.0 4.0 -1 ------- null}
d -t 0.757944 -s 5 -d 7 -p tcp -e 592 -c 1 -i 2 -a 1 -x {0.0 4.0 1 ------- null}
+ -t 0.773726666666667 -s 3 -d 7 -p tcp -e 592 -c 1 -i 3 -a 1 -x {0.0 4.0 2 ------- null}
- -t 0.773726666666667 -s 3 -d 7 -p tcp -e 592 -c 1 -i 3 -a 1 -x {0.0 4.0 2 ------- null}
h -t 0.773726666666667 -s 3 -d 7 -p tcp -e 592 -c 1 -i 3 -a 1 -x {0.0 4.0 -1 ------- null}
d -t 0.773730666666667 -s 5 -d 7 -p tcp -e 592 -c 1 -i 3 -a 1 -x {0.0 4.0 2 ------- null}
r -t 0.797944 -s 7 -d 4 -p tcp -e 592 -c 1 -i 2 -a 1 -x {0.0 4.0 1 ------- null}
r -t 0.813730666666667 -s 7 -d 4 -p tcp -e 592 -c 1 -i 3 -a 1 -x {0.0 4.0 2 ------- null}
h -t 0.813730666666667 -s 4 -d 7 -p ack -e 40 -c 1 -i 4 -a 1 -x {4.0 0.0 2 ------- null}
+ -t 0.853730666666667 -s 4 -d 7 -p ack -e 40 -c 1 -i 4 -a 1 -x {4.0 0.0 2 ------- null}
- -t 0.853730666666667 -s 4 -d 7 -p ack -e 40 -c 1 -i 4 -a 1 -x {4.0 0.0 2 ------- null}
h -t 0.853730666666667 -s 4 -d 7 -p ack -e 40 -c 1 -i 4 -a 1 -x {4.0 0.0 -1 ------- null}
d -t 0.853734666666667 -s 5 -d 7 -p ack -e 40 -c 1 -i 4 -a 1 -x {4.0 0.0 2 ------- null}
r -t 0.893734666666667 -s 7 -d 3 -p ack -e 40 -c 1 -i 4 -a 1 -x {4.0 0.0 2 ------- null}
+ -t 0.893734666666667 -s 3 -d 2 -p ack -e 40 -c 1 -i 4 -a 1 -x {4.0 0.0 2 ------- null}
- -t 0.893734666666667 -s 3 -d 2 -p ack -e 40 -c 1 -i 4 -a 1 -x {4.0 0.0 2 ------- null}
h -t 0.893734666666667 -s 3 -d 2 -p ack -e 40 -c 1 -i 4 -a 1 -x {4.0 0.0 -1 ------- null}
r -t 0.994801333333333 -s 3 -d 2 -p ack -e 40 -c 1 -i 4 -a 1 -x {4.0 0.0 2 ------- null}
h -t 0.994801333333333 -s 2 -d 6 -p ack -e 40 -c 1 -i 4 -a 1 -x {4.0 0.0 2 ------- null}
+ -t 1.03480133333333 -s 2 -d 6 -p ack -e 40 -c 1 -i 4 -a 1 -x {4.0 0.0 2 ------- null}
- -t 1.03480133333333 -s 2 -d 6 -p ack -e 40 -c 1 -i 4 -a 1 -x {4.0 0.0 2 ------- null}
h -t 1.03480133333333 -s 2 -d 6 -p ack -e 40 -c 1 -i 4 -a 1 -x {4.0 0.0 -1 ------- null}
d -t 1.03480533333333 -s 1 -d 6 -p ack -e 40 -c 1 -i 4 -a 1 -x {4.0 0.0 2 ------- null}
r -t 1.07480533333333 -s 6 -d 0 -p ack -e 40 -c 1 -i 4 -a 1 -x {4.0 0.0 2 ------- null}
h -t 1.07480533333333 -s 0 -d 6 -p tcp -e 592 -c 1 -i 5 -a 1 -x {0.0 4.0 3 ------- null}
h -t 1.07480533333333 -s 0 -d 6 -p tcp -e 592 -c 1 -i 6 -a 1 -x {0.0 4.0 4 ------- null}
h -t 1.07480533333333 -s 0 -d 6 -p tcp -e 592 -c 1 -i 7 -a 1 -x {0.0 4.0 5 ------- null}
+ -t 1.11480533333333 -s 0 -d 6 -p tcp -e 592 -c 1 -i 5 -a 1 -x {0.0 4.0 3 ------- null}
- -t 1.11480533333333 -s 0 -d 6 -p tcp -e 592 -c 1 -i 5 -a 1 -x {0.0 4.0 3 ------- null}
h -t 1.11480533333333 -s 0 -d 6 -p tcp -e 592 -c 1 -i 5 -a 1 -x {0.0 4.0 -1 ------- null}
+ -t 1.11480533333333 -s 0 -d 6 -p tcp -e 592 -c 1 -i 6 -a 1 -x {0.0 4.0 4 ------- null}
+ -t 1.11480533333333 -s 0 -d 6 -p tcp -e 592 -c 1 -i 7 -a 1 -x {0.0 4.0 5 ------- null}
d -t 1.11480933333333 -s 1 -d 6 -p tcp -e 592 -c 1 -i 5 -a 1 -x {0.0 4.0 3 ------- null}
- -t 1.11742933333333 -s 0 -d 6 -p tcp -e 592 -c 1 -i 6 -a 1 -x {0.0 4.0 4 ------- null}
h -t 1.11742933333333 -s 0 -d 6 -p tcp -e 592 -c 1 -i 6 -a 1 -x {0.0 4.0 -1 ------- null}
d -t 1.11743333333333 -s 1 -d 6 -p tcp -e 592 -c 1 -i 6 -a 1 -x {0.0 4.0 4 ------- null}
- -t 1.12005333333333 -s 0 -d 6 -p tcp -e 592 -c 1 -i 7 -a 1 -x {0.0 4.0 5 ------- null}
h -t 1.12005333333333 -s 0 -d 6 -p tcp -e 592 -c 1 -i 7 -a 1 -x {0.0 4.0 -1 ------- null}
d -t 1.12005733333333 -s 1 -d 6 -p tcp -e 592 -c 1 -i 7 -a 1 -x {0.0 4.0 5 ------- null}
r -t 1.15480933333333 -s 6 -d 2 -p tcp -e 592 -c 1 -i 5 -a 1 -x {0.0 4.0 3 ------- null}
+ -t 1.15480933333333 -s 2 -d 3 -p tcp -e 592 -c 1 -i 5 -a 1 -x {0.0 4.0 3 ------- null}
- -t 1.15480933333333 -s 2 -d 3 -p tcp -e 592 -c 1 -i 5 -a 1 -x {0.0 4.0 3 ------- null}
h -t 1.15480933333333 -s 2 -d 3 -p tcp -e 592 -c 1 -i 5 -a 1 -x {0.0 4.0 -1 ------- null}
r -t 1.15743333333333 -s 6 -d 2 -p tcp -e 592 -c 1 -i 6 -a 1 -x {0.0 4.0 4 ------- null}
+ -t 1.15743333333333 -s 2 -d 3 -p tcp -e 592 -c 1 -i 6 -a 1 -x {0.0 4.0 4 ------- null}
r -t 1.16005733333333 -s 6 -d 2 -p tcp -e 592 -c 1 -i 7 -a 1 -x {0.0 4.0 5 ------- null}
+ -t 1.16005733333333 -s 2 -d 3 -p tcp -e 592 -c 1 -i 7 -a 1 -x {0.0 4.0 5 ------- null}
- -t 1.170596 -s 2 -d 3 -p tcp -e 592 -c 1 -i 6 -a 1 -x {0.0 4.0 4 ------- null}
h -t 1.170596 -s 2 -d 3 -p tcp -e 592 -c 1 -i 6 -a 1 -x {0.0 4.0 -1 ------- null}
- -t 1.18638266666667 -s 2 -d 3 -p tcp -e 592 -c 1 -i 7 -a 1 -x {0.0 4.0 5 ------- null}
h -t 1.18638266666667 -s 2 -d 3 -p tcp -e 592 -c 1 -i 7 -a 1 -x {0.0 4.0 -1 ------- null}
r -t 1.270596 -s 2 -d 3 -p tcp -e 592 -c 1 -i 5 -a 1 -x {0.0 4.0 3 ------- null}
h -t 1.270596 -s 3 -d 7 -p tcp -e 592 -c 1 -i 5 -a 1 -x {0.0 4.0 3 ------- null}
r -t 1.28638266666667 -s 2 -d 3 -p tcp -e 592 -c 1 -i 6 -a 1 -x {0.0 4.0 4 ------- null}
h -t 1.28638266666667 -s 3 -d 7 -p tcp -e 592 -c 1 -i 6 -a 1 -x {0.0 4.0 4 ------- null}
r -t 1.30216933333333 -s 2 -d 3 -p tcp -e 592 -c 1 -i 7 -a 1 -x {0.0 4.0 5 ------- null}
h -t 1.30216933333333 -s 3 -d 7 -p tcp -e 592 -c 1 -i 7 -a 1 -x {0.0 4.0 5 ------- null}
+ -t 1.310596 -s 3 -d 7 -p tcp -e 592 -c 1 -i 5 -a 1 -x {0.0 4.0 3 ------- null}
- -t 1.310596 -s 3 -d 7 -p tcp -e 592 -c 1 -i 5 -a 1 -x {0.0 4.0 3 ------- null}
h -t 1.310596 -s 3 -d 7 -p tcp -e 592 -c 1 -i 5 -a 1 -x {0.0 4.0 -1 ------- null}
d -t 1.3106 -s 5 -d 7 -p tcp -e 592 -c 1 -i 5 -a 1 -x {0.0 4.0 3 ------- null}
+ -t 1.32638266666667 -s 3 -d 7 -p tcp -e 592 -c 1 -i 6 -a 1 -x {0.0 4.0 4 ------- null}
- -t 1.32638266666667 -s 3 -d 7 -p tcp -e 592 -c 1 -i 6 -a 1 -x {0.0 4.0 4 ------- null}
h -t 1.32638266666667 -s 3 -d 7 -p tcp -e 592 -c 1 -i 6 -a 1 -x {0.0 4.0 -1 ------- null}
d -t 1.32638666666667 -s 5 -d 7 -p tcp -e 592 -c 1 -i 6 -a 1 -x {0.0 4.0 4 ------- null}
+ -t 1.34216933333333 -s 3 -d 7 -p tcp -e 592 -c 1 -i 7 -a 1 -x {0.0 4.0 5 ------- null}
- -t 1.34216933333333 -s 3 -d 7 -p tcp -e 592 -c 1 -i 7 -a 1 -x {0.0 4.0 5 ------- null}
h -t 1.34216933333333 -s 3 -d 7 -p tcp -e 592 -c 1 -i 7 -a 1 -x {0.0 4.0 -1 ------- null}
d -t 1.34217333333333 -s 5 -d 7 -p tcp -e 592 -c 1 -i 7 -a 1 -x {0.0 4.0 5 ------- null}
r -t 1.3506 -s 7 -d 4 -p tcp -e 592 -c 1 -i 5 -a 1 -x {0.0 4.0 3 ------- null}
r -t 1.36638666666667 -s 7 -d 4 -p tcp -e 592 -c 1 -i 6 -a 1 -x {0.0 4.0 4 ------- null}
h -t 1.36638666666667 -s 4 -d 7 -p ack -e 40 -c 1 -i 8 -a 1 -x {4.0 0.0 4 ------- null}
r -t 1.38217333333333 -s 7 -d 4 -p tcp -e 592 -c 1 -i 7 -a 1 -x {0.0 4.0 5 ------- null}
+ -t 1.40638666666667 -s 4 -d 7 -p ack -e 40 -c 1 -i 8 -a 1 -x {4.0 0.0 4 ------- null}
- -t 1.40638666666667 -s 4 -d 7 -p ack -e 40 -c 1 -i 8 -a 1 -x {4.0 0.0 4 ------- null}
h -t 1.40638666666667 -s 4 -d 7 -p ack -e 40 -c 1 -i 8 -a 1 -x {4.0 0.0 -1 ------- null}
d -t 1.40639066666667 -s 5 -d 7 -p ack -e 40 -c 1 -i 8 -a 1 -x {4.0 0.0 4 ------- null}
r -t 1.44639066666667 -s 7 -d 3 -p ack -e 40 -c 1 -i 8 -a 1 -x {4.0 0.0 4 ------- null}
+ -t 1.44639066666667 -s 3 -d 2 -p ack -e 40 -c 1 -i 8 -a 1 -x {4.0 0.0 4 ------- null}
- -t 1.44639066666667 -s 3 -d 2 -p ack -e 40 -c 1 -i 8 -a 1 -x {4.0 0.0 4 ------- null}
h -t 1.44639066666667 -s 3 -d 2 -p ack -e 40 -c 1 -i 8 -a 1 -x {4.0 0.0 -1 ------- null}
h -t 1.48217333333333 -s 4 -d 7 -p ack -e 40 -c 1 -i 9 -a 1 -x {4.0 0.0 5 ------- null}
+ -t 1.52217333333333 -s 4 -d 7 -p ack -e 40 -c 1 -i 9 -a 1 -x {4.0 0.0 5 ------- null}
- -t 1.52217333333333 -s 4 -d 7 -p ack -e 40 -c 1 -i 9 -a 1 -x {4.0 0.0 5 ------- null}
h -t 1.52217333333333 -s 4 -d 7 -p ack -e 40 -c 1 -i 9 -a 1 -x {4.0 0.0 -1 ------- null}
d -t 1.52217733333333 -s 5 -d 7 -p ack -e 40 -c 1 -i 9 -a 1 -x {4.0 0.0 5 ------- null}
r -t 1.54745733333333 -s 3 -d 2 -p ack -e 40 -c 1 -i 8 -a 1 -x {4.0 0.0 4 ------- null}
h -t 1.54745733333333 -s 2 -d 6 -p ack -e 40 -c 1 -i 8 -a 1 -x {4.0 0.0 4 ------- null}
r -t 1.56217733333333 -s 7 -d 3 -p ack -e 40 -c 1 -i 9 -a 1 -x {4.0 0.0 5 ------- null}
+ -t 1.56217733333333 -s 3 -d 2 -p ack -e 40 -c 1 -i 9 -a 1 -x {4.0 0.0 5 ------- null}
- -t 1.56217733333333 -s 3 -d 2 -p ack -e 40 -c 1 -i 9 -a 1 -x {4.0 0.0 5 ------- null}
h -t 1.56217733333333 -s 3 -d 2 -p ack -e 40 -c 1 -i 9 -a 1 -x {4.0 0.0 -1 ------- null}
+ -t 1.58745733333333 -s 2 -d 6 -p ack -e 40 -c 1 -i 8 -a 1 -x {4.0 0.0 4 ------- null}
- -t 1.58745733333333 -s 2 -d 6 -p ack -e 40 -c 1 -i 8 -a 1 -x {4.0 0.0 4 ------- null}
h -t 1.58745733333333 -s 2 -d 6 -p ack -e 40 -c 1 -i 8 -a 1 -x {4.0 0.0 -1 ------- null}
d -t 1.58746133333333 -s 1 -d 6 -p ack -e 40 -c 1 -i 8 -a 1 -x {4.0 0.0 4 ------- null}
r -t 1.62746133333333 -s 6 -d 0 -p ack -e 40 -c 1 -i 8 -a 1 -x {4.0 0.0 4 ------- null}
h -t 1.62746133333333 -s 0 -d 6 -p tcp -e 592 -c 1 -i 10 -a 1 -x {0.0 4.0 6 ------- null}
h -t 1.62746133333333 -s 0 -d 6 -p tcp -e 592 -c 1 -i 11 -a 1 -x {0.0 4.0 7 ------- null}
h -t 1.62746133333333 -s 0 -d 6 -p tcp -e 592 -c 1 -i 12 -a 1 -x {0.0 4.0 8 ------- null}
r -t 1.663244 -s 3 -d 2 -p ack -e 40 -c 1 -i 9 -a 1 -x {4.0 0.0 5 ------- null}
h -t 1.663244 -s 2 -d 6 -p ack -e 40 -c 1 -i 9 -a 1 -x {4.0 0.0 5 ------- null}
+ -t 1.66746133333333 -s 0 -d 6 -p tcp -e 592 -c 1 -i 10 -a 1 -x {0.0 4.0 6 ------- null}
- -t 1.66746133333333 -s 0 -d 6 -p tcp -e 592 -c 1 -i 10 -a 1 -x {0.0 4.0 6 ------- null}
h -t 1.66746133333333 -s 0 -d 6 -p tcp -e 592 -c 1 -i 10 -a 1 -x {0.0 4.0 -1 ------- null}
+ -t 1.66746133333333 -s 0 -d 6 -p tcp -e 592 -c 1 -i 11 -a 1 -x {0.0 4.0 7 ------- null}
+ -t 1.66746133333333 -s 0 -d 6 -p tcp -e 592 -c 1 -i 12 -a 1 -x {0.0 4.0 8 ------- null}
d -t 1.66746533333333 -s 1 -d 6 -p tcp -e 592 -c 1 -i 10 -a 1 -x {0.0 4.0 6 ------- null}
- -t 1.67008533333333 -s 0 -d 6 -p tcp -e 592 -c 1 -i 11 -a 1 -x {0.0 4.0 7 ------- null}
h -t 1.67008533333333 -s 0 -d 6 -p tcp -e 592 -c 1 -i 11 -a 1 -x {0.0 4.0 -1 ------- null}
d -t 1.67008933333333 -s 1 -d 6 -p tcp -e 592 -c 1 -i 11 -a 1 -x {0.0 4.0 7 ------- null}
- -t 1.67270933333333 -s 0 -d 6 -p tcp -e 592 -c 1 -i 12 -a 1 -x {0.0 4.0 8 ------- null}
h -t 1.67270933333333 -s 0 -d 6 -p tcp -e 592 -c 1 -i 12 -a 1 -x {0.0 4.0 -1 ------- null}
d -t 1.67271333333333 -s 1 -d 6 -p tcp -e 592 -c 1 -i 12 -a 1 -x {0.0 4.0 8 ------- null}
+ -t 1.703244 -s 2 -d 6 -p ack -e 40 -c 1 -i 9 -a 1 -x {4.0 0.0 5 ------- null}
- -t 1.703244 -s 2 -d 6 -p ack -e 40 -c 1 -i 9 -a 1 -x {4.0 0.0 5 ------- null}
h -t 1.703244 -s 2 -d 6 -p ack -e 40 -c 1 -i 9 -a 1 -x {4.0 0.0 -1 ------- null}
d -t 1.703248 -s 1 -d 6 -p ack -e 40 -c 1 -i 9 -a 1 -x {4.0 0.0 5 ------- null}
r -t 1.70746533333333 -s 6 -d 2 -p tcp -e 592 -c 1 -i 10 -a 1 -x {0.0 4.0 6 ------- null}
+ -t 1.70746533333333 -s 2 -d 3 -p tcp -e 592 -c 1 -i 10 -a 1 -x {0.0 4.0 6 ------- null}
- -t 1.70746533333333 -s 2 -d 3 -p tcp -e 592 -c 1 -i 10 -a 1 -x {0.0 4.0 6 ------- null}
h -t 1.70746533333333 -s 2 -d 3 -p tcp -e 592 -c 1 -i 10 -a 1 -x {0.0 4.0 -1 ------- null}
r -t 1.71008933333333 -s 6 -d 2 -p tcp -e 592 -c 1 -i 11 -a 1 -x {0.0 4.0 7 ------- null}
+ -t 1.71008933333333 -s 2 -d 3 -p tcp -e 592 -c 1 -i 11 -a 1 -x {0.0 4.0 7 ------- null}
r -t 1.71271333333333 -s 6 -d 2 -p tcp -e 592 -c 1 -i 12 -a 1 -x {0.0 4.0 8 ------- null}
+ -t 1.71271333333333 -s 2 -d 3 -p tcp -e 592 -c 1 -i 12 -a 1 -x {0.0 4.0 8 ------- null}
- -t 1.723252 -s 2 -d 3 -p tcp -e 592 -c 1 -i 11 -a 1 -x {0.0 4.0 7 ------- null}
h -t 1.723252 -s 2 -d 3 -p tcp -e 592 -c 1 -i 11 -a 1 -x {0.0 4.0 -1 ------- null}
- -t 1.73903866666667 -s 2 -d 3 -p tcp -e 592 -c 1 -i 12 -a 1 -x {0.0 4.0 8 ------- null}
h -t 1.73903866666667 -s 2 -d 3 -p tcp -e 592 -c 1 -i 12 -a 1 -x {0.0 4.0 -1 ------- null}
r -t 1.743248 -s 6 -d 0 -p ack -e 40 -c 1 -i 9 -a 1 -x {4.0 0.0 5 ------- null}
h -t 1.743248 -s 0 -d 6 -p tcp -e 592 -c 1 -i 13 -a 1 -x {0.0 4.0 9 ------- null}
h -t 1.743248 -s 0 -d 6 -p tcp -e 592 -c 1 -i 14 -a 1 -x {0.0 4.0 10 ------- null}
+ -t 1.783248 -s 0 -d 6 -p tcp -e 592 -c 1 -i 13 -a 1 -x {0.0 4.0 9 ------- null}
- -t 1.783248 -s 0 -d 6 -p tcp -e 592 -c 1 -i 13 -a 1 -x {0.0 4.0 9 ------- null}
h -t 1.783248 -s 0 -d 6 -p tcp -e 592 -c 1 -i 13 -a 1 -x {0.0 4.0 -1 ------- null}
+ -t 1.783248 -s 0 -d 6 -p tcp -e 592 -c 1 -i 14 -a 1 -x {0.0 4.0 10 ------- null}
d -t 1.783252 -s 1 -d 6 -p tcp -e 592 -c 1 -i 13 -a 1 -x {0.0 4.0 9 ------- null}
- -t 1.785872 -s 0 -d 6 -p tcp -e 592 -c 1 -i 14 -a 1 -x {0.0 4.0 10 ------- null}
h -t 1.785872 -s 0 -d 6 -p tcp -e 592 -c 1 -i 14 -a 1 -x {0.0 4.0 -1 ------- null}
d -t 1.785876 -s 1 -d 6 -p tcp -e 592 -c 1 -i 14 -a 1 -x {0.0 4.0 10 ------- null}
r -t 1.823252 -s 2 -d 3 -p tcp -e 592 -c 1 -i 10 -a 1 -x {0.0 4.0 6 ------- null}
h -t 1.823252 -s 3 -d 7 -p tcp -e 592 -c 1 -i 10 -a 1 -x {0.0 4.0 6 ------- null}
r -t 1.823252 -s 6 -d 2 -p tcp -e 592 -c 1 -i 13 -a 1 -x {0.0 4.0 9 ------- null}
+ -t 1.823252 -s 2 -d 3 -p tcp -e 592 -c 1 -i 13 -a 1 -x {0.0 4.0 9 ------- null}
- -t 1.823252 -s 2 -d 3 -p tcp -e 592 -c 1 -i 13 -a 1 -x {0.0 4.0 9 ------- null}
h -t 1.823252 -s 2 -d 3 -p tcp -e 592 -c 1 -i 13 -a 1 -x {0.0 4.0 -1 ------- null}
r -t 1.825876 -s 6 -d 2 -p tcp -e 592 -c 1 -i 14 -a 1 -x {0.0 4.0 10 ------- null}
+ -t 1.825876 -s 2 -d 3 -p tcp -e 592 -c 1 -i 14 -a 1 -x {0.0 4.0 10 ------- null}
r -t 1.83903866666667 -s 2 -d 3 -p tcp -e 592 -c 1 -i 11 -a 1 -x {0.0 4.0 7 ------- null}
h -t 1.83903866666667 -s 3 -d 7 -p tcp -e 592 -c 1 -i 11 -a 1 -x {0.0 4.0 7 ------- null}
- -t 1.83903866666667 -s 2 -d 3 -p tcp -e 592 -c 1 -i 14 -a 1 -x {0.0 4.0 10 ------- null}
h -t 1.83903866666667 -s 2 -d 3 -p tcp -e 592 -c 1 -i 14 -a 1 -x {0.0 4.0 -1 ------- null}
r -t 1.85482533333333 -s 2 -d 3 -p tcp -e 592 -c 1 -i 12 -a 1 -x {0.0 4.0 8 ------- null}
h -t 1.85482533333333 -s 3 -d 7 -p tcp -e 592 -c 1 -i 12 -a 1 -x {0.0 4.0 8 ------- null}
+ -t 1.863252 -s 3 -d 7 -p tcp -e 592 -c 1 -i 10 -a 1 -x {0.0 4.0 6 ------- null}
- -t 1.863252 -s 3 -d 7 -p tcp -e 592 -c 1 -i 10 -a 1 -x {0.0 4.0 6 ------- null}
h -t 1.863252 -s 3 -d 7 -p tcp -e 592 -c 1 -i 10 -a 1 -x {0.0 4.0 -1 ------- null}
d -t 1.863256 -s 5 -d 7 -p tcp -e 592 -c 1 -i 10 -a 1 -x {0.0 4.0 6 ------- null}
+ -t 1.87903866666667 -s 3 -d 7 -p tcp -e 592 -c 1 -i 11 -a 1 -x {0.0 4.0 7 ------- null}
- -t 1.87903866666667 -s 3 -d 7 -p tcp -e 592 -c 1 -i 11 -a 1 -x {0.0 4.0 7 ------- null}
h -t 1.87903866666667 -s 3 -d 7 -p tcp -e 592 -c 1 -i 11 -a 1 -x {0.0 4.0 -1 ------- null}
d -t 1.87904266666667 -s 5 -d 7 -p tcp -e 592 -c 1 -i 11 -a 1 -x {0.0 4.0 7 ------- null}
+ -t 1.89482533333333 -s 3 -d 7 -p tcp -e 592 -c 1 -i 12 -a 1 -x {0.0 4.0 8 ------- null}
- -t 1.89482533333333 -s 3 -d 7 -p tcp -e 592 -c 1 -i 12 -a 1 -x {0.0 4.0 8 ------- null}
h -t 1.89482533333333 -s 3 -d 7 -p tcp -e 592 -c 1 -i 12 -a 1 -x {0.0 4.0 -1 ------- null}
d -t 1.89482933333333 -s 5 -d 7 -p tcp -e 592 -c 1 -i 12 -a 1 -x {0.0 4.0 8 ------- null}
r -t 1.903256 -s 7 -d 4 -p tcp -e 592 -c 1 -i 10 -a 1 -x {0.0 4.0 6 ------- null}
r -t 1.91904266666667 -s 7 -d 4 -p tcp -e 592 -c 1 -i 11 -a 1 -x {0.0 4.0 7 ------- null}
h -t 1.91904266666667 -s 4 -d 7 -p ack -e 40 -c 1 -i 15 -a 1 -x {4.0 0.0 7 ------- null}
r -t 1.93482933333333 -s 7 -d 4 -p tcp -e 592 -c 1 -i 12 -a 1 -x {0.0 4.0 8 ------- null}
r -t 1.93903866666667 -s 2 -d 3 -p tcp -e 592 -c 1 -i 13 -a 1 -x {0.0 4.0 9 ------- null}
h -t 1.93903866666667 -s 3 -d 7 -p tcp -e 592 -c 1 -i 13 -a 1 -x {0.0 4.0 9 ------- null}
r -t 1.95482533333333 -s 2 -d 3 -p tcp -e 592 -c 1 -i 14 -a 1 -x {0.0 4.0 10 ------- null}
h -t 1.95482533333333 -s 3 -d 7 -p tcp -e 592 -c 1 -i 14 -a 1 -x {0.0 4.0 10 ------- null}
+ -t 1.95904266666667 -s 4 -d 7 -p ack -e 40 -c 1 -i 15 -a 1 -x {4.0 0.0 7 ------- null}
- -t 1.95904266666667 -s 4 -d 7 -p ack -e 40 -c 1 -i 15 -a 1 -x {4.0 0.0 7 ------- null}
h -t 1.95904266666667 -s 4 -d 7 -p ack -e 40 -c 1 -i 15 -a 1 -x {4.0 0.0 -1 ------- null}
d -t 1.95904666666667 -s 5 -d 7 -p ack -e 40 -c 1 -i 15 -a 1 -x {4.0 0.0 7 ------- null}
+ -t 1.97903866666667 -s 3 -d 7 -p tcp -e 592 -c 1 -i 13 -a 1 -x {0.0 4.0 9 ------- null}
- -t 1.97903866666667 -s 3 -d 7 -p tcp -e 592 -c 1 -i 13 -a 1 -x {0.0 4.0 9 ------- null}
h -t 1.97903866666667 -s 3 -d 7 -p tcp -e 592 -c 1 -i 13 -a 1 -x {0.0 4.0 -1 ------- null}
d -t 1.97904266666667 -s 5 -d 7 -p tcp -e 592 -c 1 -i 13 -a 1 -x {0.0 4.0 9 ------- null}
+ -t 1.99482533333333 -s 3 -d 7 -p tcp -e 592 -c 1 -i 14 -a 1 -x {0.0 4.0 10 ------- null}
- -t 1.99482533333333 -s 3 -d 7 -p tcp -e 592 -c 1 -i 14 -a 1 -x {0.0 4.0 10 ------- null}
h -t 1.99482533333333 -s 3 -d 7 -p tcp -e 592 -c 1 -i 14 -a 1 -x {0.0 4.0 -1 ------- null}
d -t 1.99482933333333 -s 5 -d 7 -p tcp -e 592 -c 1 -i 14 -a 1 -x {0.0 4.0 10 ------- null}
r -t 1.99904666666667 -s 7 -d 3 -p ack -e 40 -c 1 -i 15 -a 1 -x {4.0 0.0 7 ------- null}
+ -t 1.99904666666667 -s 3 -d 2 -p ack -e 40 -c 1 -i 15 -a 1 -x {4.0 0.0 7 ------- null}
- -t 1.99904666666667 -s 3 -d 2 -p ack -e 40 -c 1 -i 15 -a 1 -x {4.0 0.0 7 ------- null}
h -t 1.99904666666667 -s 3 -d 2 -p ack -e 40 -c 1 -i 15 -a 1 -x {4.0 0.0 -1 ------- null}
r -t 2.01904266666667 -s 7 -d 4 -p tcp -e 592 -c 1 -i 13 -a 1 -x {0.0 4.0 9 ------- null}
h -t 2.01904266666667 -s 4 -d 7 -p ack -e 40 -c 1 -i 16 -a 1 -x {4.0 0.0 9 ------- null}
r -t 2.03482933333333 -s 7 -d 4 -p tcp -e 592 -c 1 -i 14 -a 1 -x {0.0 4.0 10 ------- null}
+ -t 2.05904266666667 -s 4 -d 7 -p ack -e 40 -c 1 -i 16 -a 1 -x {4.0 0.0 9 ------- null}
- -t 2.05904266666667 -s 4 -d 7 -p ack -e 40 -c 1 -i 16 -a 1 -x {4.0 0.0 9 ------- null}
h -t 2.05904266666667 -s 4 -d 7 -p ack -e 40 -c 1 -i 16 -a 1 -x {4.0 0.0 -1 ------- null}
d -t 2.05904666666667 -s 5 -d 7 -p ack -e 40 -c 1 -i 16 -a 1 -x {4.0 0.0 9 ------- null}
r -t 2.09904666666667 -s 7 -d 3 -p ack -e 40 -c 1 -i 16 -a 1 -x {4.0 0.0 9 ------- null}
+ -t 2.09904666666667 -s 3 -d 2 -p ack -e 40 -c 1 -i 16 -a 1 -x {4.0 0.0 9 ------- null}
- -t 2.09904666666667 -s 3 -d 2 -p ack -e 40 -c 1 -i 16 -a 1 -x {4.0 0.0 9 ------- null}
h -t 2.09904666666667 -s 3 -d 2 -p ack -e 40 -c 1 -i 16 -a 1 -x {4.0 0.0 -1 ------- null}
r -t 2.10011333333333 -s 3 -d 2 -p ack -e 40 -c 1 -i 15 -a 1 -x {4.0 0.0 7 ------- null}
h -t 2.10011333333333 -s 2 -d 6 -p ack -e 40 -c 1 -i 15 -a 1 -x {4.0 0.0 7 ------- null}
h -t 2.13482933333333 -s 4 -d 7 -p ack -e 40 -c 1 -i 17 -a 1 -x {4.0 0.0 10 ------- null}
+ -t 2.14011333333333 -s 2 -d 6 -p ack -e 40 -c 1 -i 15 -a 1 -x {4.0 0.0 7 ------- null}
- -t 2.14011333333333 -s 2 -d 6 -p ack -e 40 -c 1 -i 15 -a 1 -x {4.0 0.0 7 ------- null}
h -t 2.14011333333333 -s 2 -d 6 -p ack -e 40 -c 1 -i 15 -a 1 -x {4.0 0.0 -1 ------- null}
d -t 2.14011733333333 -s 1 -d 6 -p ack -e 40 -c 1 -i 15 -a 1 -x {4.0 0.0 7 ------- null}
+ -t 2.17482933333333 -s 4 -d 7 -p ack -e 40 -c 1 -i 17 -a 1 -x {4.0 0.0 10 ------- null}
- -t 2.17482933333333 -s 4 -d 7 -p ack -e 40 -c 1 -i 17 -a 1 -x {4.0 0.0 10 ------- null}
h -t 2.17482933333333 -s 4 -d 7 -p ack -e 40 -c 1 -i 17 -a 1 -x {4.0 0.0 -1 ------- null}
d -t 2.17483333333333 -s 5 -d 7 -p ack -e 40 -c 1 -i 17 -a 1 -x {4.0 0.0 10 ------- null}
r -t 2.18011733333333 -s 6 -d 0 -p ack -e 40 -c 1 -i 15 -a 1 -x {4.0 0.0 7 ------- null}
h -t 2.18011733333333 -s 0 -d 6 -p tcp -e 592 -c 1 -i 18 -a 1 -x {0.0 4.0 11 ------- null}
h -t 2.18011733333333 -s 0 -d 6 -p tcp -e 592 -c 1 -i 19 -a 1 -x {0.0 4.0 12 ------- null}
h -t 2.18011733333333 -s 0 -d 6 -p tcp -e 592 -c 1 -i 20 -a 1 -x {0.0 4.0 13 ------- null}
r -t 2.20011333333333 -s 3 -d 2 -p ack -e 40 -c 1 -i 16 -a 1 -x {4.0 0.0 9 ------- null}
h -t 2.20011333333333 -s 2 -d 6 -p ack -e 40 -c 1 -i 16 -a 1 -x {4.0 0.0 9 ------- null}
r -t 2.21483333333333 -s 7 -d 3 -p ack -e 40 -c 1 -i 17 -a 1 -x {4.0 0.0 10 ------- null}
+ -t 2.21483333333333 -s 3 -d 2 -p ack -e 40 -c 1 -i 17 -a 1 -x {4.0 0.0 10 ------- null}
- -t 2.21483333333333 -s 3 -d 2 -p ack -e 40 -c 1 -i 17 -a 1 -x {4.0 0.0 10 ------- null}
h -t 2.21483333333333 -s 3 -d 2 -p ack -e 40 -c 1 -i 17 -a 1 -x {4.0 0.0 -1 ------- null}
+ -t 2.22011733333333 -s 0 -d 6 -p tcp -e 592 -c 1 -i 18 -a 1 -x {0.0 4.0 11 ------- null}
- -t 2.22011733333333 -s 0 -d 6 -p tcp -e 592 -c 1 -i 18 -a 1 -x {0.0 4.0 11 ------- null}
h -t 2.22011733333333 -s 0 -d 6 -p tcp -e 592 -c 1 -i 18 -a 1 -x {0.0 4.0 -1 ------- null}
+ -t 2.22011733333333 -s 0 -d 6 -p tcp -e 592 -c 1 -i 19 -a 1 -x {0.0 4.0 12 ------- null}
+ -t 2.22011733333333 -s 0 -d 6 -p tcp -e 592 -c 1 -i 20 -a 1 -x {0.0 4.0 13 ------- null}
d -t 2.22012133333333 -s 1 -d 6 -p tcp -e 592 -c 1 -i 18 -a 1 -x {0.0 4.0 11 ------- null}
- -t 2.22274133333333 -s 0 -d 6 -p tcp -e 592 -c 1 -i 19 -a 1 -x {0.0 4.0 12 ------- null}
h -t 2.22274133333333 -s 0 -d 6 -p tcp -e 592 -c 1 -i 19 -a 1 -x {0.0 4.0 -1 ------- null}
d -t 2.22274533333333 -s 1 -d 6 -p tcp -e 592 -c 1 -i 19 -a 1 -x {0.0 4.0 12 ------- null}
- -t 2.22536533333333 -s 0 -d 6 -p tcp -e 592 -c 1 -i 20 -a 1 -x {0.0 4.0 13 ------- null}
h -t 2.22536533333333 -s 0 -d 6 -p tcp -e 592 -c 1 -i 20 -a 1 -x {0.0 4.0 -1 ------- null}
d -t 2.22536933333333 -s 1 -d 6 -p tcp -e 592 -c 1 -i 20 -a 1 -x {0.0 4.0 13 ------- null}
+ -t 2.24011333333333 -s 2 -d 6 -p ack -e 40 -c 1 -i 16 -a 1 -x {4.0 0.0 9 ------- null}
- -t 2.24011333333333 -s 2 -d 6 -p ack -e 40 -c 1 -i 16 -a 1 -x {4.0 0.0 9 ------- null}
h -t 2.24011333333333 -s 2 -d 6 -p ack -e 40 -c 1 -i 16 -a 1 -x {4.0 0.0 -1 ------- null}
d -t 2.24011733333333 -s 1 -d 6 -p ack -e 40 -c 1 -i 16 -a 1 -x {4.0 0.0 9 ------- null}
r -t 2.26012133333333 -s 6 -d 2 -p tcp -e 592 -c 1 -i 18 -a 1 -x {0.0 4.0 11 ------- null}
+ -t 2.26012133333333 -s 2 -d 3 -p tcp -e 592 -c 1 -i 18 -a 1 -x {0.0 4.0 11 ------- null}
- -t 2.26012133333333 -s 2 -d 3 -p tcp -e 592 -c 1 -i 18 -a 1 -x {0.0 4.0 11 ------- null}
h -t 2.26012133333333 -s 2 -d 3 -p tcp -e 592 -c 1 -i 18 -a 1 -x {0.0 4.0 -1 ------- null}
r -t 2.26274533333333 -s 6 -d 2 -p tcp -e 592 -c 1 -i 19 -a 1 -x {0.0 4.0 12 ------- null}
+ -t 2.26274533333333 -s 2 -d 3 -p tcp -e 592 -c 1 -i 19 -a 1 -x {0.0 4.0 12 ------- null}
r -t 2.26536933333333 -s 6 -d 2 -p tcp -e 592 -c 1 -i 20 -a 1 -x {0.0 4.0 13 ------- null}
+ -t 2.26536933333333 -s 2 -d 3 -p tcp -e 592 -c 1 -i 20 -a 1 -x {0.0 4.0 13 ------- null}
- -t 2.275908 -s 2 -d 3 -p tcp -e 592 -c 1 -i 19 -a 1 -x {0.0 4.0 12 ------- null}
h -t 2.275908 -s 2 -d 3 -p tcp -e 592 -c 1 -i 19 -a 1 -x {0.0 4.0 -1 ------- null}
r -t 2.28011733333333 -s 6 -d 0 -p ack -e 40 -c 1 -i 16 -a 1 -x {4.0 0.0 9 ------- null}
h -t 2.28011733333333 -s 0 -d 6 -p tcp -e 592 -c 1 -i 21 -a 1 -x {0.0 4.0 14 ------- null}
h -t 2.28011733333333 -s 0 -d 6 -p tcp -e 592 -c 1 -i 22 -a 1 -x {0.0 4.0 15 ------- null}
h -t 2.28011733333333 -s 0 -d 6 -p tcp -e 592 -c 1 -i 23 -a 1 -x {0.0 4.0 16 ------- null}
- -t 2.29169466666667 -s 2 -d 3 -p tcp -e 592 -c 1 -i 20 -a 1 -x {0.0 4.0 13 ------- null}
h -t 2.29169466666667 -s 2 -d 3 -p tcp -e 592 -c 1 -i 20 -a 1 -x {0.0 4.0 -1 ------- null}
r -t 2.3159 -s 3 -d 2 -p ack -e 40 -c 1 -i 17 -a 1 -x {4.0 0.0 10 ------- null}
h -t 2.3159 -s 2 -d 6 -p ack -e 40 -c 1 -i 17 -a 1 -x {4.0 0.0 10 ------- null}
+ -t 2.32011733333333 -s 0 -d 6 -p tcp -e 592 -c 1 -i 21 -a 1 -x {0.0 4.0 14 ------- null}
- -t 2.32011733333333 -s 0 -d 6 -p tcp -e 592 -c 1 -i 21 -a 1 -x {0.0 4.0 14 ------- null}
h -t 2.32011733333333 -s 0 -d 6 -p tcp -e 592 -c 1 -i 21 -a 1 -x {0.0 4.0 -1 ------- null}
+ -t 2.32011733333333 -s 0 -d 6 -p tcp -e 592 -c 1 -i 22 -a 1 -x {0.0 4.0 15 ------- null}
+ -t 2.32011733333333 -s 0 -d 6 -p tcp -e 592 -c 1 -i 23 -a 1 -x {0.0 4.0 16 ------- null}
d -t 2.32012133333333 -s 1 -d 6 -p tcp -e 592 -c 1 -i 21 -a 1 -x {0.0 4.0 14 ------- null}
- -t 2.32274133333333 -s 0 -d 6 -p tcp -e 592 -c 1 -i 22 -a 1 -x {0.0 4.0 15 ------- null}
h -t 2.32274133333333 -s 0 -d 6 -p tcp -e 592 -c 1 -i 22 -a 1 -x {0.0 4.0 -1 ------- null}
d -t 2.32274533333333 -s 1 -d 6 -p tcp -e 592 -c 1 -i 22 -a 1 -x {0.0 4.0 15 ------- null}
- -t 2.32536533333333 -s 0 -d 6 -p tcp -e 592 -c 1 -i 23 -a 1 -x {0.0 4.0 16 ------- null}
h -t 2.32536533333333 -s 0 -d 6 -p tcp -e 592 -c 1 -i 23 -a 1 -x {0.0 4.0 -1 ------- null}
d -t 2.32536933333333 -s 1 -d 6 -p tcp -e 592 -c 1 -i 23 -a 1 -x {0.0 4.0 16 ------- null}
+ -t 2.3559 -s 2 -d 6 -p ack -e 40 -c 1 -i 17 -a 1 -x {4.0 0.0 10 ------- null}
- -t 2.3559 -s 2 -d 6 -p ack -e 40 -c 1 -i 17 -a 1 -x {4.0 0.0 10 ------- null}
h -t 2.3559 -s 2 -d 6 -p ack -e 40 -c 1 -i 17 -a 1 -x {4.0 0.0 -1 ------- null}
d -t 2.355904 -s 1 -d 6 -p ack -e 40 -c 1 -i 17 -a 1 -x {4.0 0.0 10 ------- null}
r -t 2.36012133333333 -s 6 -d 2 -p tcp -e 592 -c 1 -i 21 -a 1 -x {0.0 4.0 14 ------- null}
+ -t 2.36012133333333 -s 2 -d 3 -p tcp -e 592 -c 1 -i 21 -a 1 -x {0.0 4.0 14 ------- null}
- -t 2.36012133333333 -s 2 -d 3 -p tcp -e 592 -c 1 -i 21 -a 1 -x {0.0 4.0 14 ------- null}