h 0 0 6 tcp 40 ------- 1 0.0 4.0 0 0
+ 0.04 0 6 tcp 40 ------- 1 0.0 4.0 0 0
- 0.04 0 6 tcp 40 ------- 1 0.0 4.0 0 0
d 0.040004 1 6 tcp 40 ------- 1 0.0 4.0 0 0
r 0.080004 6 2 tcp 40 ------- 1 0.0 4.0 0 0
+ 0.080004 2 3 tcp 40 ------- 1 0.0 4.0 0 0
- 0.080004 2 3 tcp 40 ------- 1 0.0 4.0 0 0
r 0.181071 2 3 tcp 40 ------- 1 0.0 4.0 0 0
h 0.181071 3 7 tcp 40 ------- 1 0.0 4.0 0 0
+ 0.221071 3 7 tcp 40 ------- 1 0.0 4.0 0 0
- 0.221071 3 7 tcp 40 ------- 1 0.0 4.0 0 0
d 0.221075 5 7 tcp 40 ------- 1 0.0 4.0 0 0
r 0.261075 7 4 tcp 40 ------- 1 0.0 4.0 0 0
h 0.261075 4 7 ack 40 ------- 1 4.0 0.0 0 1
+ 0.301075 4 7 ack 40 ------- 1 4.0 0.0 0 1
- 0.301075 4 7 ack 40 ------- 1 4.0 0.0 0 1
d 0.301079 5 7 ack 40 ------- 1 4.0 0.0 0 1
r 0.341079 7 3 ack 40 ------- 1 4.0 0.0 0 1
+ 0.341079 3 2 ack 40 ------- 1 4.0 0.0 0 1
- 0.341079 3 2 ack 40 ------- 1 4.0 0.0 0 1
r 0.442145 3 2 ack 40 ------- 1 4.0 0.0 0 1
h 0.442145 2 6 ack 40 ------- 1 4.0 0.0 0 1
+ 0.482145 2 6 ack 40 ------- 1 4.0 0.0 0 1
- 0.482145 2 6 ack 40 ------- 1 4.0 0.0 0 1
d 0.482149 1 6 ack 40 ------- 1 4.0 0.0 0 1
r 0.522149 6 0 ack 40 ------- 1 4.0 0.0 0 1
h 0.522149 0 6 tcp 592 ------- 1 0.0 4.0 1 2
h 0.522149 0 6 tcp 592 ------- 1 0.0 4.0 2 3
+ 0.562149 0 6 tcp 592 ------- 1 0.0 4.0 1 2
- 0.562149 0 6 tcp 592 ------- 1 0.0 4.0 1 2
+ 0.562149 0 6 tcp 592 ------- 1 0.0 4.0 2 3
d 0.562153 1 6 tcp 592 ------- 1 0.0 4.0 1 2
- 0.564773 0 6 tcp 592 ------- 1 0.0 4.0 2 3
d 0.564777 1 6 tcp 592 ------- 1 0.0 4.0 2 3
r 0.602153 6 2 tcp 592 ------- 1 0.0 4.0 1 2
+ 0.602153 2 3 tcp 592 ------- 1 0.0 4.0 1 2
- 0.602153 2 3 tcp 592 ------- 1 0.0 4.0 1 2
r 0.604777 6 2 tcp 592 ------- 1 0.0 4.0 2 3
+ 0.604777 2 3 tcp 592 ------- 1 0.0 4.0 2 3
- 0.61794 2 3 tcp 592 ------- 1 0.0 4.0 2 3
r 0.71794 2 3 tcp 592 ------- 1 0.0 4.0 1 2
h 0.71794 3 7 tcp 592 ------- 1 0.0 4.0 1 2
r 0.733727 2 3 tcp 592 ------- 1 0.0 4.0 2 3
h 0.733727 3 7 tcp 592 ------- 1 0.0 4.0 2 3
+ 0.75794 3 7 tcp 592 ------- 1 0.0 4.0 1 2
- 0.75794 3 7 tcp 592 ------- 1 0.0 4.0 1 2
d 0.757944 5 7 tcp 592 ------- 1 0.0 4.0 1 2
+ 0.773727 3 7 tcp 592 ------- 1 0.0 4.0 2 3
- 0.773727 3 7 tcp 592 ------- 1 0.0 4.0 2 3
d 0.773731 5 7 tcp 592 ------- 1 0.0 4.0 2 3
r 0.797944 7 4 tcp 592 ------- 1 0.0 4.0 1 2
r 0.813731 7 4 tcp 592 ------- 1 0.0 4.0 2 3
h 0.813731 4 7 ack 40 ------- 1 4.0 0.0 2 4
+ 0.853731 4 7 ack 40 ------- 1 4.0 0.0 2 4
- 0.853731 4 7 ack 40 ------- 1 4.0 0.0 2 4
d 0.853735 5 7 ack 40 ------- 1 4.0 0.0 2 4
r 0.893735 7 3 ack 40 ------- 1 4.0 0.0 2 4
+ 0.893735 3 2 ack 40 ------- 1 4.0 0.0 2 4
- 0.893735 3 2 ack 40 ------- 1 4.0 0.0 2 4
r 0.994801 3 2 ack 40 ------- 1 4.0 0.0 2 4
h 0.994801 2 6 ack 40 ------- 1 4.0 0.0 2 4
+ 1.034801 2 6 ack 40 ------- 1 4.0 0.0 2 4
- 1.034801 2 6 ack 40 ------- 1 4.0 0.0 2 4
d 1.034805 1 6 ack 40 ------- 1 4.0 0.0 2 4
r 1.074805 6 0 ack 40 ------- 1 4.0 0.0 2 4
h 1.074805 0 6 tcp 592 ------- 1 0.0 4.0 3 5
h 1.074805 0 6 tcp 592 ------- 1 0.0 4.0 4 6
h 1.074805 0 6 tcp 592 ------- 1 0.0 4.0 5 7
+ 1.114805 0 6 tcp 592 ------- 1 0.0 4.0 3 5
- 1.114805 0 6 tcp 592 ------- 1 0.0 4.0 3 5
+ 1.114805 0 6 tcp 592 ------- 1 0.0 4.0 4 6
+ 1.114805 0 6 tcp 592 ------- 1 0.0 4.0 5 7
d 1.114809 1 6 tcp 592 ------- 1 0.0 4.0 3 5
- 1.117429 0 6 tcp 592 ------- 1 0.0 4.0 4 6
d 1.117433 1 6 tcp 592 ------- 1 0.0 4.0 4 6
- 1.120053 0 6 tcp 592 ------- 1 0.0 4.0 5 7
d 1.120057 1 6 tcp 592 ------- 1 0.0 4.0 5 7
r 1.154809 6 2 tcp 592 ------- 1 0.0 4.0 3 5
+ 1.154809 2 3 tcp 592 ------- 1 0.0 4.0 3 5
- 1.154809 2 3 tcp 592 ------- 1 0.0 4.0 3 5
r 1.157433 6 2 tcp 592 ------- 1 0.0 4.0 4 6
+ 1.157433 2 3 tcp 592 ------- 1 0.0 4.0 4 6
r 1.160057 6 2 tcp 592 ------- 1 0.0 4.0 5 7
+ 1.160057 2 3 tcp 592 ------- 1 0.0 4.0 5 7
- 1.170596 2 3 tcp 592 ------- 1 0.0 4.0 4 6
- 1.186383 2 3 tcp 592 ------- 1 0.0 4.0 5 7
r 1.270596 2 3 tcp 592 ------- 1 0.0 4.0 3 5
h 1.270596 3 7 tcp 592 ------- 1 0.0 4.0 3 5
r 1.286383 2 3 tcp 592 ------- 1 0.0 4.0 4 6
h 1.286383 3 7 tcp 592 ------- 1 0.0 4.0 4 6
r 1.302169 2 3 tcp 592 ------- 1 0.0 4.0 5 7
h 1.302169 3 7 tcp 592 ------- 1 0.0 4.0 5 7
+ 1.310596 3 7 tcp 592 ------- 1 0.0 4.0 3 5
- 1.310596 3 7 tcp 592 ------- 1 0.0 4.0 3 5
d 1.3106 5 7 tcp 592 ------- 1 0.0 4.0 3 5
+ 1.326383 3 7 tcp 592 ------- 1 0.0 4.0 4 6
- 1.326383 3 7 tcp 592 ------- 1 0.0 4.0 4 6
d 1.326387 5 7 tcp 592 ------- 1 0.0 4.0 4 6
+ 1.342169 3 7 tcp 592 ------- 1 0.0 4.0 5 7
- 1.342169 3 7 tcp 592 ------- 1 0.0 4.0 5 7
d 1.342173 5 7 tcp 592 ------- 1 0.0 4.0 5 7
r 1.3506 7 4 tcp 592 ------- 1 0.0 4.0 3 5
r 1.366387 7 4 tcp 592 ------- 1 0.0 4.0 4 6
h 1.366387 4 7 ack 40 ------- 1 4.0 0.0 4 8
r 1.382173 7 4 tcp 592 ------- 1 0.0 4.0 5 7
+ 1.406387 4 7 ack 40 ------- 1 4.0 0.0 4 8
- 1.406387 4 7 ack 40 ------- 1 4.0 0.0 4 8
d 1.406391 5 7 ack 40 ------- 1 4.0 0.0 4 8
r 1.446391 7 3 ack 40 ------- 1 4.0 0.0 4 8
+ 1.446391 3 2 ack 40 ------- 1 4.0 0.0 4 8
- 1.446391 3 2 ack 40 ------- 1 4.0 0.0 4 8
h 1.482173 4 7 ack 40 ------- 1 4.0 0.0 5 9
+ 1.522173 4 7 ack 40 ------- 1 4.0 0.0 5 9
- 1.522173 4 7 ack 40 ------- 1 4.0 0.0 5 9
d 1.522177 5 7 ack 40 ------- 1 4.0 0.0 5 9
r 1.547457 3 2 ack 40 ------- 1 4.0 0.0 4 8
h 1.547457 2 6 ack 40 ------- 1 4.0 0.0 4 8
r 1.562177 7 3 ack 40 ------- 1 4.0 0.0 5 9
+ 1.562177 3 2 ack 40 ------- 1 4.0 0.0 5 9
- 1.562177 3 2 ack 40 ------- 1 4.0 0.0 5 9
+ 1.587457 2 6 ack 40 ------- 1 4.0 0.0 4 8
- 1.587457 2 6 ack 40 ------- 1 4.0 0.0 4 8
d 1.587461 1 6 ack 40 ------- 1 4.0 0.0 4 8
r 1.627461 6 0 ack 40 ------- 1 4.0 0.0 4 8
h 1.627461 0 6 tcp 592 ------- 1 0.0 4.0 6 10
h 1.627461 0 6 tcp 592 ------- 1 0.0 4.0 7 11
h 1.627461 0 6 tcp 592 ------- 1 0.0 4.0 8 12
r 1.663244 3 2 ack 40 ------- 1 4.0 0.0 5 9
h 1.663244 2 6 ack 40 ------- 1 4.0 0.0 5 9
+ 1.667461 0 6 tcp 592 ------- 1 0.0 4.0 6 10
- 1.667461 0 6 tcp 592 ------- 1 0.0 4.0 6 10
+ 1.667461 0 6 tcp 592 ------- 1 0.0 4.0 7 11
+ 1.667461 0 6 tcp 592 ------- 1 0.0 4.0 8 12
d 1.667465 1 6 tcp 592 ------- 1 0.0 4.0 6 10
- 1.670085 0 6 tcp 592 ------- 1 0.0 4.0 7 11
d 1.670089 1 6 tcp 592 ------- 1 0.0 4.0 7 11
- 1.672709 0 6 tcp 592 ------- 1 0.0 4.0 8 12
d 1.672713 1 6 tcp 592 ------- 1 0.0 4.0 8 12
+ 1.703244 2 6 ack 40 ------- 1 4.0 0.0 5 9
- 1.703244 2 6 ack 40 ------- 1 4.0 0.0 5 9
d 1.703248 1 6 ack 40 ------- 1 4.0 0.0 5 9
r 1.707465 6 2 tcp 592 ------- 1 0.0 4.0 6 10
+ 1.707465 2 3 tcp 592 ------- 1 0.0 4.0 6 10
- 1.707465 2 3 tcp 592 ------- 1 0.0 4.0 6 10
r 1.710089 6 2 tcp 592 ------- 1 0.0 4.0 7 11
+ 1.710089 2 3 tcp 592 ------- 1 0.0 4.0 7 11
r 1.712713 6 2 tcp 592 ------- 1 0.0 4.0 8 12
+ 1.712713 2 3 tcp 592 ------- 1 0.0 4.0 8 12
- 1.723252 2 3 tcp 592 ------- 1 0.0 4.0 7 11
- 1.739039 2 3 tcp 592 ------- 1 0.0 4.0 8 12
r 1.743248 6 0 ack 40 ------- 1 4.0 0.0 5 9
h 1.743248 0 6 tcp 592 ------- 1 0.0 4.0 9 13
h 1.743248 0 6 tcp 592 ------- 1 0.0 4.0 10 14
+ 1.783248 0 6 tcp 592 ------- 1 0.0 4.0 9 13
- 1.783248 0 6 tcp 592 ------- 1 0.0 4.0 9 13
+ 1.783248 0 6 tcp 592 ------- 1 0.0 4.0 10 14
d 1.783252 1 6 tcp 592 ------- 1 0.0 4.0 9 13
- 1.785872 0 6 tcp 592 ------- 1 0.0 4.0 10 14
d 1.785876 1 6 tcp 592 ------- 1 0.0 4.0 10 14
r 1.823252 2 3 tcp 592 ------- 1 0.0 4.0 6 10
h 1.823252 3 7 tcp 592 ------- 1 0.0 4.0 6 10
r 1.823252 6 2 tcp 592 ------- 1 0.0 4.0 9 13
+ 1.823252 2 3 tcp 592 ------- 1 0.0 4.0 9 13
- 1.823252 2 3 tcp 592 ------- 1 0.0 4.0 9 13
r 1.825876 6 2 tcp 592 ------- 1 0.0 4.0 10 14
+ 1.825876 2 3 tcp 592 ------- 1 0.0 4.0 10 14
r 1.839039 2 3 tcp 592 ------- 1 0.0 4.0 7 11
h 1.839039 3 7 tcp 592 ------- 1 0.0 4.0 7 11
- 1.839039 2 3 tcp 592 ------- 1 0.0 4.0 10 14
r 1.854825 2 3 tcp 592 ------- 1 0.0 4.0 8 12
h 1.854825 3 7 tcp 592 ------- 1 0.0 4.0 8 12
+ 1.863252 3 7 tcp 592 ------- 1 0.0 4.0 6 10
- 1.863252 3 7 tcp 592 ------- 1 0.0 4.0 6 10
d 1.863256 5 7 tcp 592 ------- 1 0.0 4.0 6 10
+ 1.879039 3 7 tcp 592 ------- 1 0.0 4.0 7 11
- 1.879039 3 7 tcp 592 ------- 1 0.0 4.0 7 11
d 1.879043 5 7 tcp 592 ------- 1 0.0 4.0 7 11
+ 1.894825 3 7 tcp 592 ------- 1 0.0 4.0 8 12
- 1.894825 3 7 tcp 592 ------- 1 0.0 4.0 8 12
d 1.894829 5 7 tcp 592 ------- 1 0.0 4.0 8 12
r 1.903256 7 4 tcp 592 ------- 1 0.0 4.0 6 10
r 1.919043 7 4 tcp 592 ------- 1 0.0 4.0 7 11
h 1.919043 4 7 ack 40 ------- 1 4.0 0.0 7 15
r 1.934829 7 4 tcp 592 ------- 1 0.0 4.0 8 12
r 1.939039 2 3 tcp 592 ------- 1 0.0 4.0 9 13
h 1.939039 3 7 tcp 592 ------- 1 0.0 4.0 9 13
r 1.954825 2 3 tcp 592 ------- 1 0.0 4.0 10 14
h 1.954825 3 7 tcp 592 ------- 1 0.0 4.0 10 14
+ 1.959043 4 7 ack 40 ------- 1 4.0 0.0 7 15
- 1.959043 4 7 ack 40 ------- 1 4.0 0.0 7 15
d 1.959047 5 7 ack 40 ------- 1 4.0 0.0 7 15
+ 1.979039 3 7 tcp 592 ------- 1 0.0 4.0 9 13
- 1.979039 3 7 tcp 592 ------- 1 0.0 4.0 9 13
d 1.979043 5 7 tcp 592 ------- 1 0.0 4.0 9 13
+ 1.994825 3 7 tcp 592 ------- 1 0.0 4.0 10 14
- 1.994825 3 7 tcp 592 ------- 1 0.0 4.0 10 14
d 1.994829 5 7 tcp 592 ------- 1 0.0 4.0 10 14
r 1.999047 7 3 ack 40 ------- 1 4.0 0.0 7 15
+ 1.999047 3 2 ack 40 ------- 1 4.0 0.0 7 15
- 1.999047 3 2 ack 40 ------- 1 4.0 0.0 7 15
r 2.019043 7 4 tcp 592 ------- 1 0.0 4.0 9 13
h 2.019043 4 7 ack 40 ------- 1 4.0 0.0 9 16
r 2.034829 7 4 tcp 592 ------- 1 0.0 4.0 10 14
+ 2.059043 4 7 ack 40 ------- 1 4.0 0.0 9 16
- 2.059043 4 7 ack 40 ------- 1 4.0 0.0 9 16
d 2.059047 5 7 ack 40 ------- 1 4.0 0.0 9 16
r 2.099047 7 3 ack 40 ------- 1 4.0 0.0 9 16
+ 2.099047 3 2 ack 40 ------- 1 4.0 0.0 9 16
- 2.099047 3 2 ack 40 ------- 1 4.0 0.0 9 16
r 2.100113 3 2 ack 40 ------- 1 4.0 0.0 7 15
h 2.100113 2 6 ack 40 ------- 1 4.0 0.0 7 15
h 2.134829 4 7 ack 40 ------- 1 4.0 0.0 10 17
+ 2.140113 2 6 ack 40 ------- 1 4.0 0.0 7 15
- 2.140113 2 6 ack 40 ------- 1 4.0 0.0 7 15
d 2.140117 1 6 ack 40 ------- 1 4.0 0.0 7 15
+ 2.174829 4 7 ack 40 ------- 1 4.0 0.0 10 17
- 2.174829 4 7 ack 40 ------- 1 4.0 0.0 10 17
d 2.174833 5 7 ack 40 ------- 1 4.0 0.0 10 17
r 2.180117 6 0 ack 40 ------- 1 4.0 0.0 7 15
h 2.180117 0 6 tcp 592 ------- 1 0.0 4.0 11 18
h 2.180117 0 6 tcp 592 ------- 1 0.0 4.0 12 19
h 2.180117 0 6 tcp 592 ------- 1 0.0 4.0 13 20
r 2.200113 3 2 ack 40 ------- 1 4.0 0.0 9 16
h 2.200113 2 6 ack 40 ------- 1 4.0 0.0 9 16
r 2.214833 7 3 ack 40 ------- 1 4.0 0.0 10 17
+ 2.214833 3 2 ack 40 ------- 1 4.0 0.0 10 17
- 2.214833 3 2 ack 40 ------- 1 4.0 0.0 10 17
+ 2.220117 0 6 tcp 592 ------- 1 0.0 4.0 11 18
- 2.220117 0 6 tcp 592 ------- 1 0.0 4.0 11 18
+ 2.220117 0 6 tcp 592 ------- 1 0.0 4.0 12 19
+ 2.220117 0 6 tcp 592 ------- 1 0.0 4.0 13 20
d 2.220121 1 6 tcp 592 ------- 1 0.0 4.0 11 18
- 2.222741 0 6 tcp 592 ------- 1 0.0 4.0 12 19
d 2.222745 1 6 tcp 592 ------- 1 0.0 4.0 12 19
- 2.225365 0 6 tcp 592 ------- 1 0.0 4.0 13 20
d 2.225369 1 6 tcp 592 ------- 1 0.0 4.0 13 20
+ 2.240113 2 6 ack 40 ------- 1 4.0 0.0 9 16
- 2.240113 2 6 ack 40 ------- 1 4.0 0.0 9 16
d 2.240117 1 6 ack 40 ------- 1 4.0 0.0 9 16
r 2.260121 6 2 tcp 592 ------- 1 0.0 4.0 11 18
+ 2.260121 2 3 tcp 592 ------- 1 0.0 4.0 11 18
- 2.260121 2 3 tcp 592 ------- 1 0.0 4.0 11 18
r 2.262745 6 2 tcp 592 ------- 1 0.0 4.0 12 19
+ 2.262745 2 3 tcp 592 ------- 1 0.0 4.0 12 19
r 2.265369 6 2 tcp 592 ------- 1 0.0 4.0 13 20
+ 2.265369 2 3 tcp 592 ------- 1 0.0 4.0 13 20
- 2.275908 2 3 tcp 592 ------- 1 0.0 4.0 12 19
r 2.280117 6 0 ack 40 ------- 1 4.0 0.0 9 16
h 2.280117 0 6 tcp 592 ------- 1 0.0 4.0 14 21
h 2.280117 0 6 tcp 592 ------- 1 0.0 4.0 15 22
h 2.280117 0 6 tcp 592 ------- 1 0.0 4.0 16 23
- 2.291695 2 3 tcp 592 ------- 1 0.0 4.0 13 20
r 2.3159 3 2 ack 40 ------- 1 4.0 0.0 10 17
h 2.3159 2 6 ack 40 ------- 1 4.0 0.0 10 17
+ 2.320117 0 6 tcp 592 ------- 1 0.0 4.0 14 21
- 2.320117 0 6 tcp 592 ------- 1 0.0 4.0 14 21
+ 2.320117 0 6 tcp 592 ------- 1 0.0 4.0 15 22
+ 2.320117 0 6 tcp 592 ------- 1 0.0 4.0 16 23
d 2.320121 1 6 tcp 592 ------- 1 0.0 4.0 14 21
- 2.322741 0 6 tcp 592 ------- 1 0.0 4.0 15 22
d 2.322745 1 6 tcp 592 ------- 1 0.0 4.0 15 22
- 2.325365 0 6 tcp 592 ------- 1 0.0 4.0 16 23
d 2.325369 1 6 tcp 592 ------- 1 0.0 4.0 16 23
+ 2.3559 2 6 ack 40 ------- 1 4.0 0.0 10 17
- 2.3559 2 6 ack 40 ------- 1 4.0 0.0 10 17
d 2.355904 1 6 ack 40 ------- 1 4.0 0.0 10 17
r 2.360121 6 2 tcp 592 ------- 1 0.0 4.0 14 21
+ 2.360121 2 3 tcp 592 ------- 1 0.0 4.0 14 21
- 2.360121 2 3 tcp 592 ------- 1 0.0 4.0 14 21
r 2.362745 6 2 tcp 592 ------- 1 0.0 4.0 15 22
+ 2.362745 2 3 tcp 592 ------- 1 0.0 4.0 15 22
r 2.365369 6 2 tcp 592 ------- 1 0.0 4.0 16 23
+ 2.365369 2 3 tcp 592 ------- 1 0.0 4.0 16 23
r 2.375908 2 3 tcp 592 ------- 1 0.0 4.0 11 18
h 2.375908 3 7 tcp 592 ------- 1 0.0 4.0 11 18
- 2.375908 2 3 tcp 592 ------- 1 0.0 4.0 15 22
r 2.391695 2 3 tcp 592 ------- 1 0.0 4.0 12 19
h 2.391695 3 7 tcp 592 ------- 1 0.0 4.0 12 19
- 2.391695 2 3 tcp 592 ------- 1 0.0 4.0 16 23
r 2.395904 6 0 ack 40 ------- 1 4.0 0.0 10 17
h 2.395904 0 6 tcp 592 ------- 1 0.0 4.0 17 24
h 2.395904 0 6 tcp 592 ------- 1 0.0 4.0 18 25
r 2.407481 2 3 tcp 592 ------- 1 0.0 4.0 13 20
h 2.407481 3 7 tcp 592 ------- 1 0.0 4.0 13 20
+ 2.415908 3 7 tcp 592 ------- 1 0.0 4.0 11 18
- 2.415908 3 7 tcp 592 ------- 1 0.0 4.0 11 18
d 2.415912 5 7 tcp 592 ------- 1 0.0 4.0 11 18
+ 2.431695 3 7 tcp 592 ------- 1 0.0 4.0 12 19
- 2.431695 3 7 tcp 592 ------- 1 0.0 4.0 12 19
d 2.431699 5 7 tcp 592 ------- 1 0.0 4.0 12 19
+ 2.435904 0 6 tcp 592 ------- 1 0.0 4.0 17 24
- 2.435904 0 6 tcp 592 ------- 1 0.0 4.0 17 24
+ 2.435904 0 6 tcp 592 ------- 1 0.0 4.0 18 25
d 2.435908 1 6 tcp 592 ------- 1 0.0 4.0 17 24
- 2.438528 0 6 tcp 592 ------- 1 0.0 4.0 18 25
d 2.438532 1 6 tcp 592 ------- 1 0.0 4.0 18 25
+ 2.447481 3 7 tcp 592 ------- 1 0.0 4.0 13 20
- 2.447481 3 7 tcp 592 ------- 1 0.0 4.0 13 20
d 2.447485 5 7 tcp 592 ------- 1 0.0 4.0 13 20
r 2.455912 7 4 tcp 592 ------- 1 0.0 4.0 11 18
r 2.471699 7 4 tcp 592 ------- 1 0.0 4.0 12 19
h 2.471699 4 7 ack 40 ------- 1 4.0 0.0 12 26
r 2.475908 2 3 tcp 592 ------- 1 0.0 4.0 14 21
h 2.475908 3 7 tcp 592 ------- 1 0.0 4.0 14 21
r 2.475908 6 2 tcp 592 ------- 1 0.0 4.0 17 24
+ 2.475908 2 3 tcp 592 ------- 1 0.0 4.0 17 24
- 2.475908 2 3 tcp 592 ------- 1 0.0 4.0 17 24
r 2.478532 6 2 tcp 592 ------- 1 0.0 4.0 18 25
+ 2.478532 2 3 tcp 592 ------- 1 0.0 4.0 18 25
r 2.487485 7 4 tcp 592 ------- 1 0.0 4.0 13 20
r 2.491695 2 3 tcp 592 ------- 1 0.0 4.0 15 22
h 2.491695 3 7 tcp 592 ------- 1 0.0 4.0 15 22
- 2.491695 2 3 tcp 592 ------- 1 0.0 4.0 18 25
r 2.507481 2 3 tcp 592 ------- 1 0.0 4.0 16 23
h 2.507481 3 7 tcp 592 ------- 1 0.0 4.0 16 23
+ 2.511699 4 7 ack 40 ------- 1 4.0 0.0 12 26
- 2.511699 4 7 ack 40 ------- 1 4.0 0.0 12 26
d 2.511703 5 7 ack 40 ------- 1 4.0 0.0 12 26
+ 2.515908 3 7 tcp 592 ------- 1 0.0 4.0 14 21
- 2.515908 3 7 tcp 592 ------- 1 0.0 4.0 14 21
d 2.515912 5 7 tcp 592 ------- 1 0.0 4.0 14 21
+ 2.531695 3 7 tcp 592 ------- 1 0.0 4.0 15 22
- 2.531695 3 7 tcp 592 ------- 1 0.0 4.0 15 22
d 2.531699 5 7 tcp 592 ------- 1 0.0 4.0 15 22
+ 2.547481 3 7 tcp 592 ------- 1 0.0 4.0 16 23
- 2.547481 3 7 tcp 592 ------- 1 0.0 4.0 16 23
d 2.547485 5 7 tcp 592 ------- 1 0.0 4.0 16 23
r 2.551703 7 3 ack 40 ------- 1 4.0 0.0 12 26
+ 2.551703 3 2 ack 40 ------- 1 4.0 0.0 12 26
- 2.551703 3 2 ack 40 ------- 1 4.0 0.0 12 26
r 2.555912 7 4 tcp 592 ------- 1 0.0 4.0 14 21
h 2.555912 4 7 ack 40 ------- 1 4.0 0.0 14 27
r 2.571699 7 4 tcp 592 ------- 1 0.0 4.0 15 22
r 2.587485 7 4 tcp 592 ------- 1 0.0 4.0 16 23
h 2.587485 4 7 ack 40 ------- 1 4.0 0.0 16 28
r 2.591695 2 3 tcp 592 ------- 1 0.0 4.0 17 24
h 2.591695 3 7 tcp 592 ------- 1 0.0 4.0 17 24
+ 2.595912 4 7 ack 40 ------- 1 4.0 0.0 14 27
- 2.595912 4 7 ack 40 ------- 1 4.0 0.0 14 27
d 2.595916 5 7 ack 40 ------- 1 4.0 0.0 14 27
r 2.607481 2 3 tcp 592 ------- 1 0.0 4.0 18 25
h 2.607481 3 7 tcp 592 ------- 1 0.0 4.0 18 25
+ 2.627485 4 7 ack 40 ------- 1 4.0 0.0 16 28
- 2.627485 4 7 ack 40 ------- 1 4.0 0.0 16 28
d 2.627489 5 7 ack 40 ------- 1 4.0 0.0 16 28
+ 2.631695 3 7 tcp 592 ------- 1 0.0 4.0 17 24
- 2.631695 3 7 tcp 592 ------- 1 0.0 4.0 17 24
d 2.631699 5 7 tcp 592 ------- 1 0.0 4.0 17 24
r 2.635916 7 3 ack 40 ------- 1 4.0 0.0 14 27
+ 2.635916 3 2 ack 40 ------- 1 4.0 0.0 14 27
- 2.635916 3 2 ack 40 ------- 1 4.0 0.0 14 27
+ 2.647481 3 7 tcp 592 ------- 1 0.0 4.0 18 25
- 2.647481 3 7 tcp 592 ------- 1 0.0 4.0 18 25
d 2.647485 5 7 tcp 592 ------- 1 0.0 4.0 18 25
r 2.652769 3 2 ack 40 ------- 1 4.0 0.0 12 26
h 2.652769 2 6 ack 40 ------- 1 4.0 0.0 12 26
r 2.667489 7 3 ack 40 ------- 1 4.0 0.0 16 28
+ 2.667489 3 2 ack 40 ------- 1 4.0 0.0 16 28
- 2.667489 3 2 ack 40 ------- 1 4.0 0.0 16 28
r 2.671699 7 4 tcp 592 ------- 1 0.0 4.0 17 24
r 2.687485 7 4 tcp 592 ------- 1 0.0 4.0 18 25
h 2.687485 4 7 ack 40 ------- 1 4.0 0.0 18 29
+ 2.692769 2 6 ack 40 ------- 1 4.0 0.0 12 26
- 2.692769 2 6 ack 40 ------- 1 4.0 0.0 12 26
d 2.692773 1 6 ack 40 ------- 1 4.0 0.0 12 26
+ 2.727485 4 7 ack 40 ------- 1 4.0 0.0 18 29
- 2.727485 4 7 ack 40 ------- 1 4.0 0.0 18 29
d 2.727489 5 7 ack 40 ------- 1 4.0 0.0 18 29
r 2.732773 6 0 ack 40 ------- 1 4.0 0.0 12 26
h 2.732773 0 6 tcp 592 ------- 1 0.0 4.0 19 30
h 2.732773 0 6 tcp 592 ------- 1 0.0 4.0 20 31
h 2.732773 0 6 tcp 592 ------- 1 0.0 4.0 21 32
r 2.736983 3 2 ack 40 ------- 1 4.0 0.0 14 27
h 2.736983 2 6 ack 40 ------- 1 4.0 0.0 14 27
r 2.767489 7 3 ack 40 ------- 1 4.0 0.0 18 29
+ 2.767489 3 2 ack 40 ------- 1 4.0 0.0 18 29
- 2.767489 3 2 ack 40 ------- 1 4.0 0.0 18 29
r 2.768556 3 2 ack 40 ------- 1 4.0 0.0 16 28
h 2.768556 2 6 ack 40 ------- 1 4.0 0.0 16 28
+ 2.772773 0 6 tcp 592 ------- 1 0.0 4.0 19 30
- 2.772773 0 6 tcp 592 ------- 1 0.0 4.0 19 30
+ 2.772773 0 6 tcp 592 ------- 1 0.0 4.0 20 31
+ 2.772773 0 6 tcp 592 ------- 1 0.0 4.0 21 32
d 2.772777 1 6 tcp 592 ------- 1 0.0 4.0 19 30
- 2.775397 0 6 tcp 592 ------- 1 0.0 4.0 20 31
d 2.775401 1 6 tcp 592 ------- 1 0.0 4.0 20 31
+ 2.776983 2 6 ack 40 ------- 1 4.0 0.0 14 27
- 2.776983 2 6 ack 40 ------- 1 4.0 0.0 14 27
d 2.776987 1 6 ack 40 ------- 1 4.0 0.0 14 27
- 2.778021 0 6 tcp 592 ------- 1 0.0 4.0 21 32
d 2.778025 1 6 tcp 592 ------- 1 0.0 4.0 21 32
+ 2.808556 2 6 ack 40 ------- 1 4.0 0.0 16 28
- 2.808556 2 6 ack 40 ------- 1 4.0 0.0 16 28
d 2.80856 1 6 ack 40 ------- 1 4.0 0.0 16 28
r 2.812777 6 2 tcp 592 ------- 1 0.0 4.0 19 30
+ 2.812777 2 3 tcp 592 ------- 1 0.0 4.0 19 30
- 2.812777 2 3 tcp 592 ------- 1 0.0 4.0 19 30
r 2.815401 6 2 tcp 592 ------- 1 0.0 4.0 20 31
+ 2.815401 2 3 tcp 592 ------- 1 0.0 4.0 20 31
r 2.816987 6 0 ack 40 ------- 1 4.0 0.0 14 27
h 2.816987 0 6 tcp 592 ------- 1 0.0 4.0 22 33
h 2.816987 0 6 tcp 592 ------- 1 0.0 4.0 23 34
h 2.816987 0 6 tcp 592 ------- 1 0.0 4.0 24 35
r 2.818025 6 2 tcp 592 ------- 1 0.0 4.0 21 32
+ 2.818025 2 3 tcp 592 ------- 1 0.0 4.0 21 32
- 2.828564 2 3 tcp 592 ------- 1 0.0 4.0 20 31
- 2.844351 2 3 tcp 592 ------- 1 0.0 4.0 21 32
r 2.84856 6 0 ack 40 ------- 1 4.0 0.0 16 28
h 2.84856 0 6 tcp 592 ------- 1 0.0 4.0 25 36
h 2.84856 0 6 tcp 592 ------- 1 0.0 4.0 26 37
h 2.84856 0 6 tcp 592 ------- 1 0.0 4.0 27 38
+ 2.856987 0 6 tcp 592 ------- 1 0.0 4.0 22 33
- 2.856987 0 6 tcp 592 ------- 1 0.0 4.0 22 33
+ 2.856987 0 6 tcp 592 ------- 1 0.0 4.0 23 34
+ 2.856987 0 6 tcp 592 ------- 1 0.0 4.0 24 35
d 2.856991 1 6 tcp 592 ------- 1 0.0 4.0 22 33
- 2.859611 0 6 tcp 592 ------- 1 0.0 4.0 23 34
d 2.859615 1 6 tcp 592 ------- 1 0.0 4.0 23 34
- 2.862235 0 6 tcp 592 ------- 1 0.0 4.0 24 35
d 2.862239 1 6 tcp 592 ------- 1 0.0 4.0 24 35
r 2.868556 3 2 ack 40 ------- 1 4.0 0.0 18 29
h 2.868556 2 6 ack 40 ------- 1 4.0 0.0 18 29
+ 2.88856 0 6 tcp 592 ------- 1 0.0 4.0 25 36
- 2.88856 0 6 tcp 592 ------- 1 0.0 4.0 25 36
+ 2.88856 0 6 tcp 592 ------- 1 0.0 4.0 26 37
+ 2.88856 0 6 tcp 592 ------- 1 0.0 4.0 27 38
d 2.888564 1 6 tcp 592 ------- 1 0.0 4.0 25 36
- 2.891184 0 6 tcp 592 ------- 1 0.0 4.0 26 37
d 2.891188 1 6 tcp 592 ------- 1 0.0 4.0 26 37
- 2.893808 0 6 tcp 592 ------- 1 0.0 4.0 27 38
d 2.893812 1 6 tcp 592 ------- 1 0.0 4.0 27 38
r 2.896991 6 2 tcp 592 ------- 1 0.0 4.0 22 33
+ 2.896991 2 3 tcp 592 ------- 1 0.0 4.0 22 33
- 2.896991 2 3 tcp 592 ------- 1 0.0 4.0 22 33
r 2.899615 6 2 tcp 592 ------- 1 0.0 4.0 23 34
+ 2.899615 2 3 tcp 592 ------- 1 0.0 4.0 23 34
r 2.902239 6 2 tcp 592 ------- 1 0.0 4.0 24 35
+ 2.902239 2 3 tcp 592 ------- 1 0.0 4.0 24 35
+ 2.908556 2 6 ack 40 ------- 1 4.0 0.0 18 29
- 2.908556 2 6 ack 40 ------- 1 4.0 0.0 18 29
d 2.90856 1 6 ack 40 ------- 1 4.0 0.0 18 29
- 2.912777 2 3 tcp 592 ------- 1 0.0 4.0 23 34
r 2.928564 2 3 tcp 592 ------- 1 0.0 4.0 19 30
h 2.928564 3 7 tcp 592 ------- 1 0.0 4.0 19 30
r 2.928564 6 2 tcp 592 ------- 1 0.0 4.0 25 36
+ 2.928564 2 3 tcp 592 ------- 1 0.0 4.0 25 36
- 2.928564 2 3 tcp 592 ------- 1 0.0 4.0 24 35
r 2.931188 6 2 tcp 592 ------- 1 0.0 4.0 26 37
+ 2.931188 2 3 tcp 592 ------- 1 0.0 4.0 26 37
r 2.933812 6 2 tcp 592 ------- 1 0.0 4.0 27 38
+ 2.933812 2 3 tcp 592 ------- 1 0.0 4.0 27 38
r 2.944351 2 3 tcp 592 ------- 1 0.0 4.0 20 31
h 2.944351 3 7 tcp 592 ------- 1 0.0 4.0 20 31
- 2.944351 2 3 tcp 592 ------- 1 0.0 4.0 25 36
r 2.94856 6 0 ack 40 ------- 1 4.0 0.0 18 29
h 2.94856 0 6 tcp 592 ------- 1 0.0 4.0 28 39
h 2.94856 0 6 tcp 592 ------- 1 0.0 4.0 29 40
h 2.94856 0 6 tcp 592 ------- 1 0.0 4.0 30 41
r 2.960137 2 3 tcp 592 ------- 1 0.0 4.0 21 32
h 2.960137 3 7 tcp 592 ------- 1 0.0 4.0 21 32
- 2.960137 2 3 tcp 592 ------- 1 0.0 4.0 26 37
+ 2.968564 3 7 tcp 592 ------- 1 0.0 4.0 19 30
- 2.968564 3 7 tcp 592 ------- 1 0.0 4.0 19 30
d 2.968568 5 7 tcp 592 ------- 1 0.0 4.0 19 30
- 2.975924 2 3 tcp 592 ------- 1 0.0 4.0 27 38
+ 2.984351 3 7 tcp 592 ------- 1 0.0 4.0 20 31
- 2.984351 3 7 tcp 592 ------- 1 0.0 4.0 20 31
d 2.984355 5 7 tcp 592 ------- 1 0.0 4.0 20 31
+ 2.98856 0 6 tcp 592 ------- 1 0.0 4.0 28 39
- 2.98856 0 6 tcp 592 ------- 1 0.0 4.0 28 39
+ 2.98856 0 6 tcp 592 ------- 1 0.0 4.0 29 40
+ 2.98856 0 6 tcp 592 ------- 1 0.0 4.0 30 41
d 2.988564 1 6 tcp 592 ------- 1 0.0 4.0 28 39
- 2.991184 0 6 tcp 592 ------- 1 0.0 4.0 29 40
d 2.991188 1 6 tcp 592 ------- 1 0.0 4.0 29 40
- 2.993808 0 6 tcp 592 ------- 1 0.0 4.0 30 41
d 2.993812 1 6 tcp 592 ------- 1 0.0 4.0 30 41
+ 3.000137 3 7 tcp 592 ------- 1 0.0 4.0 21 32
- 3.000137 3 7 tcp 592 ------- 1 0.0 4.0 21 32
d 3.000141 5 7 tcp 592 ------- 1 0.0 4.0 21 32
r 3.008568 7 4 tcp 592 ------- 1 0.0 4.0 19 30
r 3.012777 2 3 tcp 592 ------- 1 0.0 4.0 22 33
h 3.012777 3 7 tcp 592 ------- 1 0.0 4.0 22 33
r 3.024355 7 4 tcp 592 ------- 1 0.0 4.0 20 31
h 3.024355 4 7 ack 40 ------- 1 4.0 0.0 20 42
r 3.028564 2 3 tcp 592 ------- 1 0.0 4.0 23 34
h 3.028564 3 7 tcp 592 ------- 1 0.0 4.0 23 34
r 3.028564 6 2 tcp 592 ------- 1 0.0 4.0 28 39
+ 3.028564 2 3 tcp 592 ------- 1 0.0 4.0 28 39
- 3.028564 2 3 tcp 592 ------- 1 0.0 4.0 28 39
r 3.031188 6 2 tcp 592 ------- 1 0.0 4.0 29 40
+ 3.031188 2 3 tcp 592 ------- 1 0.0 4.0 29 40
r 3.033812 6 2 tcp 592 ------- 1 0.0 4.0 30 41
+ 3.033812 2 3 tcp 592 ------- 1 0.0 4.0 30 41
r 3.040141 7 4 tcp 592 ------- 1 0.0 4.0 21 32
r 3.044351 2 3 tcp 592 ------- 1 0.0 4.0 24 35
h 3.044351 3 7 tcp 592 ------- 1 0.0 4.0 24 35
- 3.044351 2 3 tcp 592 ------- 1 0.0 4.0 29 40
+ 3.052777 3 7 tcp 592 ------- 1 0.0 4.0 22 33
- 3.052777 3 7 tcp 592 ------- 1 0.0 4.0 22 33
d 3.052781 5 7 tcp 592 ------- 1 0.0 4.0 22 33
r 3.060137 2 3 tcp 592 ------- 1 0.0 4.0 25 36
h 3.060137 3 7 tcp 592 ------- 1 0.0 4.0 25 36
- 3.060137 2 3 tcp 592 ------- 1 0.0 4.0 30 41
+ 3.064355 4 7 ack 40 ------- 1 4.0 0.0 20 42
- 3.064355 4 7 ack 40 ------- 1 4.0 0.0 20 42
d 3.064359 5 7 ack 40 ------- 1 4.0 0.0 20 42
+ 3.068564 3 7 tcp 592 ------- 1 0.0 4.0 23 34
- 3.068564 3 7 tcp 592 ------- 1 0.0 4.0 23 34
d 3.068568 5 7 tcp 592 ------- 1 0.0 4.0 23 34
r 3.075924 2 3 tcp 592 ------- 1 0.0 4.0 26 37
h 3.075924 3 7 tcp 592 ------- 1 0.0 4.0 26 37
+ 3.084351 3 7 tcp 592 ------- 1 0.0 4.0 24 35
- 3.084351 3 7 tcp 592 ------- 1 0.0 4.0 24 35
d 3.084355 5 7 tcp 592 ------- 1 0.0 4.0 24 35
r 3.091711 2 3 tcp 592 ------- 1 0.0 4.0 27 38
h 3.091711 3 7 tcp 592 ------- 1 0.0 4.0 27 38
r 3.092781 7 4 tcp 592 ------- 1 0.0 4.0 22 33
h 3.092781 4 7 ack 40 ------- 1 4.0 0.0 22 43
+ 3.100137 3 7 tcp 592 ------- 1 0.0 4.0 25 36
- 3.100137 3 7 tcp 592 ------- 1 0.0 4.0 25 36
d 3.100141 5 7 tcp 592 ------- 1 0.0 4.0 25 36
r 3.104359 7 3 ack 40 ------- 1 4.0 0.0 20 42
+ 3.104359 3 2 ack 40 ------- 1 4.0 0.0 20 42
- 3.104359 3 2 ack 40 ------- 1 4.0 0.0 20 42
r 3.108568 7 4 tcp 592 ------- 1 0.0 4.0 23 34
+ 3.115924 3 7 tcp 592 ------- 1 0.0 4.0 26 37
- 3.115924 3 7 tcp 592 ------- 1 0.0 4.0 26 37
d 3.115928 5 7 tcp 592 ------- 1 0.0 4.0 26 37
r 3.124355 7 4 tcp 592 ------- 1 0.0 4.0 24 35
h 3.124355 4 7 ack 40 ------- 1 4.0 0.0 24 44
+ 3.131711 3 7 tcp 592 ------- 1 0.0 4.0 27 38
- 3.131711 3 7 tcp 592 ------- 1 0.0 4.0 27 38
d 3.131715 5 7 tcp 592 ------- 1 0.0 4.0 27 38
+ 3.132781 4 7 ack 40 ------- 1 4.0 0.0 22 43
- 3.132781 4 7 ack 40 ------- 1 4.0 0.0 22 43
d 3.132785 5 7 ack 40 ------- 1 4.0 0.0 22 43
r 3.140141 7 4 tcp 592 ------- 1 0.0 4.0 25 36
r 3.144351 2 3 tcp 592 ------- 1 0.0 4.0 28 39
h 3.144351 3 7 tcp 592 ------- 1 0.0 4.0 28 39
r 3.155928 7 4 tcp 592 ------- 1 0.0 4.0 26 37
h 3.155928 4 7 ack 40 ------- 1 4.0 0.0 26 45
r 3.160137 2 3 tcp 592 ------- 1 0.0 4.0 29 40
h 3.160137 3 7 tcp 592 ------- 1 0.0 4.0 29 40
+ 3.164355 4 7 ack 40 ------- 1 4.0 0.0 24 44
- 3.164355 4 7 ack 40 ------- 1 4.0 0.0 24 44
d 3.164359 5 7 ack 40 ------- 1 4.0 0.0 24 44
r 3.171715 7 4 tcp 592 ------- 1 0.0 4.0 27 38
r 3.172785 7 3 ack 40 ------- 1 4.0 0.0 22 43
+ 3.172785 3 2 ack 40 ------- 1 4.0 0.0 22 43
- 3.172785 3 2 ack 40 ------- 1 4.0 0.0 22 43
r 3.175924 2 3 tcp 592 ------- 1 0.0 4.0 30 41
h 3.175924 3 7 tcp 592 ------- 1 0.0 4.0 30 41
+ 3.184351 3 7 tcp 592 ------- 1 0.0 4.0 28 39
- 3.184351 3 7 tcp 592 ------- 1 0.0 4.0 28 39
d 3.184355 5 7 tcp 592 ------- 1 0.0 4.0 28 39
+ 3.195928 4 7 ack 40 ------- 1 4.0 0.0 26 45
- 3.195928 4 7 ack 40 ------- 1 4.0 0.0 26 45
d 3.195932 5 7 ack 40 ------- 1 4.0 0.0 26 45
+ 3.200137 3 7 tcp 592 ------- 1 0.0 4.0 29 40
- 3.200137 3 7 tcp 592 ------- 1 0.0 4.0 29 40
d 3.200141 5 7 tcp 592 ------- 1 0.0 4.0 29 40
r 3.204359 7 3 ack 40 ------- 1 4.0 0.0 24 44
+ 3.204359 3 2 ack 40 ------- 1 4.0 0.0 24 44
- 3.204359 3 2 ack 40 ------- 1 4.0 0.0 24 44
r 3.205425 3 2 ack 40 ------- 1 4.0 0.0 20 42
h 3.205425 2 6 ack 40 ------- 1 4.0 0.0 20 42
+ 3.215924 3 7 tcp 592 ------- 1 0.0 4.0 30 41
- 3.215924 3 7 tcp 592 ------- 1 0.0 4.0 30 41
d 3.215928 5 7 tcp 592 ------- 1 0.0 4.0 30 41
r 3.224355 7 4 tcp 592 ------- 1 0.0 4.0 28 39
h 3.224355 4 7 ack 40 ------- 1 4.0 0.0 28 46
r 3.235932 7 3 ack 40 ------- 1 4.0 0.0 26 45
+ 3.235932 3 2 ack 40 ------- 1 4.0 0.0 26 45
- 3.235932 3 2 ack 40 ------- 1 4.0 0.0 26 45
r 3.240141 7 4 tcp 592 ------- 1 0.0 4.0 29 40
+ 3.245425 2 6 ack 40 ------- 1 4.0 0.0 20 42
- 3.245425 2 6 ack 40 ------- 1 4.0 0.0 20 42
d 3.245429 1 6 ack 40 ------- 1 4.0 0.0 20 42
r 3.255928 7 4 tcp 592 ------- 1 0.0 4.0 30 41
h 3.255928 4 7 ack 40 ------- 1 4.0 0.0 30 47
+ 3.264355 4 7 ack 40 ------- 1 4.0 0.0 28 46
- 3.264355 4 7 ack 40 ------- 1 4.0 0.0 28 46
d 3.264359 5 7 ack 40 ------- 1 4.0 0.0 28 46
r 3.273852 3 2 ack 40 ------- 1 4.0 0.0 22 43
h 3.273852 2 6 ack 40 ------- 1 4.0 0.0 22 43
r 3.285429 6 0 ack 40 ------- 1 4.0 0.0 20 42
h 3.285429 0 6 tcp 592 ------- 1 0.0 4.0 31 48
h 3.285429 0 6 tcp 592 ------- 1 0.0 4.0 32 49
h 3.285429 0 6 tcp 592 ------- 1 0.0 4.0 33 50
+ 3.295928 4 7 ack 40 ------- 1 4.0 0.0 30 47
- 3.295928 4 7 ack 40 ------- 1 4.0 0.0 30 47
d 3.295932 5 7 ack 40 ------- 1 4.0 0.0 30 47
r 3.304359 7 3 ack 40 ------- 1 4.0 0.0 28 46
+ 3.304359 3 2 ack 40 ------- 1 4.0 0.0 28 46
- 3.304359 3 2 ack 40 ------- 1 4.0 0.0 28 46
r 3.305425 3 2 ack 40 ------- 1 4.0 0.0 24 44
h 3.305425 2 6 ack 40 ------- 1 4.0 0.0 24 44
+ 3.313852 2 6 ack 40 ------- 1 4.0 0.0 22 43
- 3.313852 2 6 ack 40 ------- 1 4.0 0.0 22 43
d 3.313856 1 6 ack 40 ------- 1 4.0 0.0 22 43
+ 3.325429 0 6 tcp 592 ------- 1 0.0 4.0 31 48
- 3.325429 0 6 tcp 592 ------- 1 0.0 4.0 31 48
+ 3.325429 0 6 tcp 592 ------- 1 0.0 4.0 32 49
+ 3.325429 0 6 tcp 592 ------- 1 0.0 4.0 33 50
d 3.325433 1 6 tcp 592 ------- 1 0.0 4.0 31 48
- 3.328053 0 6 tcp 592 ------- 1 0.0 4.0 32 49
d 3.328057 1 6 tcp 592 ------- 1 0.0 4.0 32 49
- 3.330677 0 6 tcp 592 ------- 1 0.0 4.0 33 50
d 3.330681 1 6 tcp 592 ------- 1 0.0 4.0 33 50
r 3.335932 7 3 ack 40 ------- 1 4.0 0.0 30 47
+ 3.335932 3 2 ack 40 ------- 1 4.0 0.0 30 47
- 3.335932 3 2 ack 40 ------- 1 4.0 0.0 30 47
r 3.336999 3 2 ack 40 ------- 1 4.0 0.0 26 45
h 3.336999 2 6 ack 40 ------- 1 4.0 0.0 26 45
+ 3.345425 2 6 ack 40 ------- 1 4.0 0.0 24 44
- 3.345425 2 6 ack 40 ------- 1 4.0 0.0 24 44
d 3.345429 1 6 ack 40 ------- 1 4.0 0.0 24 44
r 3.353856 6 0 ack 40 ------- 1 4.0 0.0 22 43
h 3.353856 0 6 tcp 592 ------- 1 0.0 4.0 34 51
h 3.353856 0 6 tcp 592 ------- 1 0.0 4.0 35 52
h 3.353856 0 6 tcp 592 ------- 1 0.0 4.0 36 53
r 3.365433 6 2 tcp 592 ------- 1 0.0 4.0 31 48
+ 3.365433 2 3 tcp 592 ------- 1 0.0 4.0 31 48
- 3.365433 2 3 tcp 592 ------- 1 0.0 4.0 31 48
r 3.368057 6 2 tcp 592 ------- 1 0.0 4.0 32 49
+ 3.368057 2 3 tcp 592 ------- 1 0.0 4.0 32 49
r 3.370681 6 2 tcp 592 ------- 1 0.0 4.0 33 50
+ 3.370681 2 3 tcp 592 ------- 1 0.0 4.0 33 50
+ 3.376999 2 6 ack 40 ------- 1 4.0 0.0 26 45
- 3.376999 2 6 ack 40 ------- 1 4.0 0.0 26 45
d 3.377003 1 6 ack 40 ------- 1 4.0 0.0 26 45
- 3.38122 2 3 tcp 592 ------- 1 0.0 4.0 32 49
r 3.385429 6 0 ack 40 ------- 1 4.0 0.0 24 44
h 3.385429 0 6 tcp 592 ------- 1 0.0 4.0 37 54
h 3.385429 0 6 tcp 592 ------- 1 0.0 4.0 38 55
h 3.385429 0 6 tcp 592 ------- 1 0.0 4.0 39 56
+ 3.393856 0 6 tcp 592 ------- 1 0.0 4.0 34 51
- 3.393856 0 6 tcp 592 ------- 1 0.0 4.0 34 51
+ 3.393856 0 6 tcp 592 ------- 1 0.0 4.0 35 52
+ 3.393856 0 6 tcp 592 ------- 1 0.0 4.0 36 53
d 3.39386 1 6 tcp 592 ------- 1 0.0 4.0 34 51
- 3.39648 0 6 tcp 592 ------- 1 0.0 4.0 35 52
d 3.396484 1 6 tcp 592 ------- 1 0.0 4.0 35 52
- 3.397007 2 3 tcp 592 ------- 1 0.0 4.0 33 50
- 3.399104 0 6 tcp 592 ------- 1 0.0 4.0 36 53
d 3.399108 1 6 tcp 592 ------- 1 0.0 4.0 36 53
r 3.405425 3 2 ack 40 ------- 1 4.0 0.0 28 46
h 3.405425 2 6 ack 40 ------- 1 4.0 0.0 28 46
r 3.417003 6 0 ack 40 ------- 1 4.0 0.0 26 45
h 3.417003 0 6 tcp 592 ------- 1 0.0 4.0 40 57