+ 0.1 1 2 tcp 40 ------- 2 1.0 5.0 0 0
- 0.1 1 2 tcp 40 ------- 2 1.0 5.0 0 0
+ 0.1 0 2 tcp 40 ------- 1 0.0 4.0 0 1
- 0.1 0 2 tcp 40 ------- 1 0.0 4.0 0 1
r 0.11016 1 2 tcp 40 ------- 2 1.0 5.0 0 0
+ 0.11016 2 3 tcp 40 ------- 2 1.0 5.0 0 0
- 0.11016 2 3 tcp 40 ------- 2 1.0 5.0 0 0
r 0.11016 0 2 tcp 40 ------- 1 0.0 4.0 0 1
+ 0.11016 2 3 tcp 40 ------- 1 0.0 4.0 0 1
- 0.111227 2 3 tcp 40 ------- 1 0.0 4.0 0 1
r 0.211227 2 3 tcp 40 ------- 2 1.0 5.0 0 0
h 0.211227 3 6 tcp 40 ------- 2 1.0 5.0 0 0
r 0.212293 2 3 tcp 40 ------- 1 0.0 4.0 0 1
h 0.212293 3 6 tcp 40 ------- 1 0.0 4.0 0 1
+ 0.251227 3 6 tcp 40 ------- 2 1.0 5.0 0 0
- 0.251227 3 6 tcp 40 ------- 2 1.0 5.0 0 0
d 0.251231 4 6 tcp 40 ------- 2 1.0 5.0 0 0
+ 0.252293 3 6 tcp 40 ------- 1 0.0 4.0 0 1
- 0.252293 3 6 tcp 40 ------- 1 0.0 4.0 0 1
d 0.252297 5 6 tcp 40 ------- 1 0.0 4.0 0 1
r 0.291231 6 5 tcp 40 ------- 2 1.0 5.0 0 0
h 0.291231 5 6 ack 40 ------- 2 5.0 1.0 0 2
r 0.292297 6 4 tcp 40 ------- 1 0.0 4.0 0 1
h 0.292297 4 6 ack 40 ------- 1 4.0 0.0 0 3
+ 0.331231 5 6 ack 40 ------- 2 5.0 1.0 0 2
- 0.331231 5 6 ack 40 ------- 2 5.0 1.0 0 2
d 0.331235 4 6 ack 40 ------- 2 5.0 1.0 0 2
+ 0.332297 4 6 ack 40 ------- 1 4.0 0.0 0 3
- 0.332297 4 6 ack 40 ------- 1 4.0 0.0 0 3
d 0.332301 5 6 ack 40 ------- 1 4.0 0.0 0 3
r 0.371235 6 3 ack 40 ------- 2 5.0 1.0 0 2
+ 0.371235 3 2 ack 40 ------- 2 5.0 1.0 0 2
- 0.371235 3 2 ack 40 ------- 2 5.0 1.0 0 2
r 0.372301 6 3 ack 40 ------- 1 4.0 0.0 0 3
+ 0.372301 3 2 ack 40 ------- 1 4.0 0.0 0 3
- 0.372301 3 2 ack 40 ------- 1 4.0 0.0 0 3
r 0.472301 3 2 ack 40 ------- 2 5.0 1.0 0 2
+ 0.472301 2 1 ack 40 ------- 2 5.0 1.0 0 2
- 0.472301 2 1 ack 40 ------- 2 5.0 1.0 0 2
r 0.473368 3 2 ack 40 ------- 1 4.0 0.0 0 3
+ 0.473368 2 0 ack 40 ------- 1 4.0 0.0 0 3
- 0.473368 2 0 ack 40 ------- 1 4.0 0.0 0 3
r 0.482461 2 1 ack 40 ------- 2 5.0 1.0 0 2
+ 0.482461 1 2 tcp 1040 ------- 2 1.0 5.0 1 4
- 0.482461 1 2 tcp 1040 ------- 2 1.0 5.0 1 4
+ 0.482461 1 2 tcp 1040 ------- 2 1.0 5.0 2 5
r 0.483528 2 0 ack 40 ------- 1 4.0 0.0 0 3
+ 0.483528 0 2 tcp 1040 ------- 1 0.0 4.0 1 6
- 0.483528 0 2 tcp 1040 ------- 1 0.0 4.0 1 6
+ 0.483528 0 2 tcp 1040 ------- 1 0.0 4.0 2 7
- 0.486621 1 2 tcp 1040 ------- 2 1.0 5.0 2 5
- 0.487688 0 2 tcp 1040 ------- 1 0.0 4.0 2 7
r 0.496621 1 2 tcp 1040 ------- 2 1.0 5.0 1 4
+ 0.496621 2 3 tcp 1040 ------- 2 1.0 5.0 1 4
- 0.496621 2 3 tcp 1040 ------- 2 1.0 5.0 1 4
r 0.497688 0 2 tcp 1040 ------- 1 0.0 4.0 1 6
+ 0.497688 2 3 tcp 1040 ------- 1 0.0 4.0 1 6
r 0.500781 1 2 tcp 1040 ------- 2 1.0 5.0 2 5
+ 0.500781 2 3 tcp 1040 ------- 2 1.0 5.0 2 5
r 0.501848 0 2 tcp 1040 ------- 1 0.0 4.0 2 7
+ 0.501848 2 3 tcp 1040 ------- 1 0.0 4.0 2 7
- 0.524355 2 3 tcp 1040 ------- 1 0.0 4.0 1 6
- 0.552088 2 3 tcp 1040 ------- 2 1.0 5.0 2 5
- 0.579821 2 3 tcp 1040 ------- 1 0.0 4.0 2 7
r 0.624355 2 3 tcp 1040 ------- 2 1.0 5.0 1 4
h 0.624355 3 6 tcp 1040 ------- 2 1.0 5.0 1 4
r 0.652088 2 3 tcp 1040 ------- 1 0.0 4.0 1 6
h 0.652088 3 6 tcp 1040 ------- 1 0.0 4.0 1 6
+ 0.664355 3 6 tcp 1040 ------- 2 1.0 5.0 1 4
- 0.664355 3 6 tcp 1040 ------- 2 1.0 5.0 1 4
d 0.664359 4 6 tcp 1040 ------- 2 1.0 5.0 1 4
r 0.679821 2 3 tcp 1040 ------- 2 1.0 5.0 2 5
h 0.679821 3 6 tcp 1040 ------- 2 1.0 5.0 2 5
+ 0.692088 3 6 tcp 1040 ------- 1 0.0 4.0 1 6
- 0.692088 3 6 tcp 1040 ------- 1 0.0 4.0 1 6
d 0.692092 5 6 tcp 1040 ------- 1 0.0 4.0 1 6
r 0.704359 6 5 tcp 1040 ------- 2 1.0 5.0 1 4
r 0.707555 2 3 tcp 1040 ------- 1 0.0 4.0 2 7
h 0.707555 3 6 tcp 1040 ------- 1 0.0 4.0 2 7
+ 0.719821 3 6 tcp 1040 ------- 2 1.0 5.0 2 5
- 0.719821 3 6 tcp 1040 ------- 2 1.0 5.0 2 5
d 0.719825 4 6 tcp 1040 ------- 2 1.0 5.0 2 5
r 0.732092 6 4 tcp 1040 ------- 1 0.0 4.0 1 6
+ 0.747555 3 6 tcp 1040 ------- 1 0.0 4.0 2 7
- 0.747555 3 6 tcp 1040 ------- 1 0.0 4.0 2 7
d 0.747559 5 6 tcp 1040 ------- 1 0.0 4.0 2 7
r 0.759825 6 5 tcp 1040 ------- 2 1.0 5.0 2 5
h 0.759825 5 6 ack 40 ------- 2 5.0 1.0 2 8
r 0.787559 6 4 tcp 1040 ------- 1 0.0 4.0 2 7
h 0.787559 4 6 ack 40 ------- 1 4.0 0.0 2 9
+ 0.799825 5 6 ack 40 ------- 2 5.0 1.0 2 8
- 0.799825 5 6 ack 40 ------- 2 5.0 1.0 2 8
d 0.799829 4 6 ack 40 ------- 2 5.0 1.0 2 8
+ 0.827559 4 6 ack 40 ------- 1 4.0 0.0 2 9
- 0.827559 4 6 ack 40 ------- 1 4.0 0.0 2 9
d 0.827563 5 6 ack 40 ------- 1 4.0 0.0 2 9
r 0.839829 6 3 ack 40 ------- 2 5.0 1.0 2 8
+ 0.839829 3 2 ack 40 ------- 2 5.0 1.0 2 8
- 0.839829 3 2 ack 40 ------- 2 5.0 1.0 2 8
r 0.867563 6 3 ack 40 ------- 1 4.0 0.0 2 9
+ 0.867563 3 2 ack 40 ------- 1 4.0 0.0 2 9
- 0.867563 3 2 ack 40 ------- 1 4.0 0.0 2 9
r 0.940896 3 2 ack 40 ------- 2 5.0 1.0 2 8
+ 0.940896 2 1 ack 40 ------- 2 5.0 1.0 2 8
- 0.940896 2 1 ack 40 ------- 2 5.0 1.0 2 8
r 0.951056 2 1 ack 40 ------- 2 5.0 1.0 2 8
+ 0.951056 1 2 tcp 1040 ------- 2 1.0 5.0 3 10
- 0.951056 1 2 tcp 1040 ------- 2 1.0 5.0 3 10
+ 0.951056 1 2 tcp 1040 ------- 2 1.0 5.0 4 11
+ 0.951056 1 2 tcp 1040 ------- 2 1.0 5.0 5 12
- 0.955216 1 2 tcp 1040 ------- 2 1.0 5.0 4 11
- 0.959376 1 2 tcp 1040 ------- 2 1.0 5.0 5 12
r 0.965216 1 2 tcp 1040 ------- 2 1.0 5.0 3 10
+ 0.965216 2 3 tcp 1040 ------- 2 1.0 5.0 3 10
- 0.965216 2 3 tcp 1040 ------- 2 1.0 5.0 3 10
r 0.968629 3 2 ack 40 ------- 1 4.0 0.0 2 9
+ 0.968629 2 0 ack 40 ------- 1 4.0 0.0 2 9
- 0.968629 2 0 ack 40 ------- 1 4.0 0.0 2 9
r 0.969376 1 2 tcp 1040 ------- 2 1.0 5.0 4 11
+ 0.969376 2 3 tcp 1040 ------- 2 1.0 5.0 4 11
r 0.973536 1 2 tcp 1040 ------- 2 1.0 5.0 5 12
+ 0.973536 2 3 tcp 1040 ------- 2 1.0 5.0 5 12
r 0.978789 2 0 ack 40 ------- 1 4.0 0.0 2 9
+ 0.978789 0 2 tcp 1040 ------- 1 0.0 4.0 3 13
- 0.978789 0 2 tcp 1040 ------- 1 0.0 4.0 3 13
+ 0.978789 0 2 tcp 1040 ------- 1 0.0 4.0 4 14
+ 0.978789 0 2 tcp 1040 ------- 1 0.0 4.0 5 15
- 0.982949 0 2 tcp 1040 ------- 1 0.0 4.0 4 14
- 0.987109 0 2 tcp 1040 ------- 1 0.0 4.0 5 15
- 0.992949 2 3 tcp 1040 ------- 2 1.0 5.0 4 11
r 0.992949 0 2 tcp 1040 ------- 1 0.0 4.0 3 13
+ 0.992949 2 3 tcp 1040 ------- 1 0.0 4.0 3 13
r 0.997109 0 2 tcp 1040 ------- 1 0.0 4.0 4 14
+ 0.997109 2 3 tcp 1040 ------- 1 0.0 4.0 4 14
r 1.001269 0 2 tcp 1040 ------- 1 0.0 4.0 5 15
+ 1.001269 2 3 tcp 1040 ------- 1 0.0 4.0 5 15
- 1.020683 2 3 tcp 1040 ------- 2 1.0 5.0 5 12
- 1.048416 2 3 tcp 1040 ------- 1 0.0 4.0 3 13
- 1.076149 2 3 tcp 1040 ------- 1 0.0 4.0 4 14
r 1.092949 2 3 tcp 1040 ------- 2 1.0 5.0 3 10
h 1.092949 3 6 tcp 1040 ------- 2 1.0 5.0 3 10
- 1.103883 2 3 tcp 1040 ------- 1 0.0 4.0 5 15
r 1.120683 2 3 tcp 1040 ------- 2 1.0 5.0 4 11
h 1.120683 3 6 tcp 1040 ------- 2 1.0 5.0 4 11
+ 1.132949 3 6 tcp 1040 ------- 2 1.0 5.0 3 10
- 1.132949 3 6 tcp 1040 ------- 2 1.0 5.0 3 10
d 1.132953 4 6 tcp 1040 ------- 2 1.0 5.0 3 10
r 1.148416 2 3 tcp 1040 ------- 2 1.0 5.0 5 12
h 1.148416 3 6 tcp 1040 ------- 2 1.0 5.0 5 12
+ 1.160683 3 6 tcp 1040 ------- 2 1.0 5.0 4 11
- 1.160683 3 6 tcp 1040 ------- 2 1.0 5.0 4 11
d 1.160687 4 6 tcp 1040 ------- 2 1.0 5.0 4 11
r 1.172953 6 5 tcp 1040 ------- 2 1.0 5.0 3 10
r 1.176149 2 3 tcp 1040 ------- 1 0.0 4.0 3 13
h 1.176149 3 6 tcp 1040 ------- 1 0.0 4.0 3 13
+ 1.188416 3 6 tcp 1040 ------- 2 1.0 5.0 5 12
- 1.188416 3 6 tcp 1040 ------- 2 1.0 5.0 5 12
d 1.18842 4 6 tcp 1040 ------- 2 1.0 5.0 5 12
r 1.200687 6 5 tcp 1040 ------- 2 1.0 5.0 4 11
h 1.200687 5 6 ack 40 ------- 2 5.0 1.0 4 16
r 1.203883 2 3 tcp 1040 ------- 1 0.0 4.0 4 14
h 1.203883 3 6 tcp 1040 ------- 1 0.0 4.0 4 14
+ 1.216149 3 6 tcp 1040 ------- 1 0.0 4.0 3 13
- 1.216149 3 6 tcp 1040 ------- 1 0.0 4.0 3 13
d 1.216153 5 6 tcp 1040 ------- 1 0.0 4.0 3 13
r 1.22842 6 5 tcp 1040 ------- 2 1.0 5.0 5 12
r 1.231616 2 3 tcp 1040 ------- 1 0.0 4.0 5 15
h 1.231616 3 6 tcp 1040 ------- 1 0.0 4.0 5 15
+ 1.240687 5 6 ack 40 ------- 2 5.0 1.0 4 16
- 1.240687 5 6 ack 40 ------- 2 5.0 1.0 4 16
d 1.240691 4 6 ack 40 ------- 2 5.0 1.0 4 16
+ 1.243883 3 6 tcp 1040 ------- 1 0.0 4.0 4 14
- 1.243883 3 6 tcp 1040 ------- 1 0.0 4.0 4 14
d 1.243887 5 6 tcp 1040 ------- 1 0.0 4.0 4 14
r 1.256153 6 4 tcp 1040 ------- 1 0.0 4.0 3 13
+ 1.271616 3 6 tcp 1040 ------- 1 0.0 4.0 5 15
- 1.271616 3 6 tcp 1040 ------- 1 0.0 4.0 5 15
d 1.27162 5 6 tcp 1040 ------- 1 0.0 4.0 5 15
r 1.280691 6 3 ack 40 ------- 2 5.0 1.0 4 16
+ 1.280691 3 2 ack 40 ------- 2 5.0 1.0 4 16
- 1.280691 3 2 ack 40 ------- 2 5.0 1.0 4 16
r 1.283887 6 4 tcp 1040 ------- 1 0.0 4.0 4 14
h 1.283887 4 6 ack 40 ------- 1 4.0 0.0 4 17
r 1.31162 6 4 tcp 1040 ------- 1 0.0 4.0 5 15
+ 1.323887 4 6 ack 40 ------- 1 4.0 0.0 4 17
- 1.323887 4 6 ack 40 ------- 1 4.0 0.0 4 17
d 1.323891 5 6 ack 40 ------- 1 4.0 0.0 4 17
h 1.32842 5 6 ack 40 ------- 2 5.0 1.0 5 18
r 1.363891 6 3 ack 40 ------- 1 4.0 0.0 4 17
+ 1.363891 3 2 ack 40 ------- 1 4.0 0.0 4 17
- 1.363891 3 2 ack 40 ------- 1 4.0 0.0 4 17
+ 1.36842 5 6 ack 40 ------- 2 5.0 1.0 5 18
- 1.36842 5 6 ack 40 ------- 2 5.0 1.0 5 18
d 1.368424 4 6 ack 40 ------- 2 5.0 1.0 5 18
r 1.381757 3 2 ack 40 ------- 2 5.0 1.0 4 16
+ 1.381757 2 1 ack 40 ------- 2 5.0 1.0 4 16
- 1.381757 2 1 ack 40 ------- 2 5.0 1.0 4 16
r 1.391917 2 1 ack 40 ------- 2 5.0 1.0 4 16
+ 1.391917 1 2 tcp 1040 ------- 2 1.0 5.0 6 19
- 1.391917 1 2 tcp 1040 ------- 2 1.0 5.0 6 19
+ 1.391917 1 2 tcp 1040 ------- 2 1.0 5.0 7 20
+ 1.391917 1 2 tcp 1040 ------- 2 1.0 5.0 8 21
- 1.396077 1 2 tcp 1040 ------- 2 1.0 5.0 7 20
- 1.400237 1 2 tcp 1040 ------- 2 1.0 5.0 8 21
r 1.406077 1 2 tcp 1040 ------- 2 1.0 5.0 6 19
+ 1.406077 2 3 tcp 1040 ------- 2 1.0 5.0 6 19
- 1.406077 2 3 tcp 1040 ------- 2 1.0 5.0 6 19
r 1.408424 6 3 ack 40 ------- 2 5.0 1.0 5 18
+ 1.408424 3 2 ack 40 ------- 2 5.0 1.0 5 18
- 1.408424 3 2 ack 40 ------- 2 5.0 1.0 5 18
r 1.410237 1 2 tcp 1040 ------- 2 1.0 5.0 7 20
+ 1.410237 2 3 tcp 1040 ------- 2 1.0 5.0 7 20
h 1.41162 4 6 ack 40 ------- 1 4.0 0.0 5 22
r 1.414397 1 2 tcp 1040 ------- 2 1.0 5.0 8 21
+ 1.414397 2 3 tcp 1040 ------- 2 1.0 5.0 8 21
- 1.433811 2 3 tcp 1040 ------- 2 1.0 5.0 7 20
+ 1.45162 4 6 ack 40 ------- 1 4.0 0.0 5 22
- 1.45162 4 6 ack 40 ------- 1 4.0 0.0 5 22
d 1.451624 5 6 ack 40 ------- 1 4.0 0.0 5 22
- 1.461544 2 3 tcp 1040 ------- 2 1.0 5.0 8 21
r 1.464957 3 2 ack 40 ------- 1 4.0 0.0 4 17
+ 1.464957 2 0 ack 40 ------- 1 4.0 0.0 4 17
- 1.464957 2 0 ack 40 ------- 1 4.0 0.0 4 17
r 1.475117 2 0 ack 40 ------- 1 4.0 0.0 4 17
+ 1.475117 0 2 tcp 1040 ------- 1 0.0 4.0 6 23
- 1.475117 0 2 tcp 1040 ------- 1 0.0 4.0 6 23
+ 1.475117 0 2 tcp 1040 ------- 1 0.0 4.0 7 24
+ 1.475117 0 2 tcp 1040 ------- 1 0.0 4.0 8 25
- 1.479277 0 2 tcp 1040 ------- 1 0.0 4.0 7 24
- 1.483437 0 2 tcp 1040 ------- 1 0.0 4.0 8 25
r 1.489277 0 2 tcp 1040 ------- 1 0.0 4.0 6 23
+ 1.489277 2 3 tcp 1040 ------- 1 0.0 4.0 6 23
- 1.489277 2 3 tcp 1040 ------- 1 0.0 4.0 6 23
r 1.491624 6 3 ack 40 ------- 1 4.0 0.0 5 22
+ 1.491624 3 2 ack 40 ------- 1 4.0 0.0 5 22
- 1.491624 3 2 ack 40 ------- 1 4.0 0.0 5 22
r 1.493437 0 2 tcp 1040 ------- 1 0.0 4.0 7 24
+ 1.493437 2 3 tcp 1040 ------- 1 0.0 4.0 7 24
r 1.497597 0 2 tcp 1040 ------- 1 0.0 4.0 8 25
+ 1.497597 2 3 tcp 1040 ------- 1 0.0 4.0 8 25
r 1.509491 3 2 ack 40 ------- 2 5.0 1.0 5 18
+ 1.509491 2 1 ack 40 ------- 2 5.0 1.0 5 18
- 1.509491 2 1 ack 40 ------- 2 5.0 1.0 5 18
- 1.517011 2 3 tcp 1040 ------- 1 0.0 4.0 7 24
r 1.519651 2 1 ack 40 ------- 2 5.0 1.0 5 18
+ 1.519651 1 2 tcp 1040 ------- 2 1.0 5.0 9 26
- 1.519651 1 2 tcp 1040 ------- 2 1.0 5.0 9 26
+ 1.519651 1 2 tcp 1040 ------- 2 1.0 5.0 10 27
- 1.523811 1 2 tcp 1040 ------- 2 1.0 5.0 10 27
r 1.533811 2 3 tcp 1040 ------- 2 1.0 5.0 6 19
h 1.533811 3 6 tcp 1040 ------- 2 1.0 5.0 6 19
r 1.533811 1 2 tcp 1040 ------- 2 1.0 5.0 9 26
+ 1.533811 2 3 tcp 1040 ------- 2 1.0 5.0 9 26
r 1.537971 1 2 tcp 1040 ------- 2 1.0 5.0 10 27
+ 1.537971 2 3 tcp 1040 ------- 2 1.0 5.0 10 27
- 1.544744 2 3 tcp 1040 ------- 1 0.0 4.0 8 25
r 1.561544 2 3 tcp 1040 ------- 2 1.0 5.0 7 20
h 1.561544 3 6 tcp 1040 ------- 2 1.0 5.0 7 20
- 1.572477 2 3 tcp 1040 ------- 2 1.0 5.0 9 26
+ 1.573811 3 6 tcp 1040 ------- 2 1.0 5.0 6 19
- 1.573811 3 6 tcp 1040 ------- 2 1.0 5.0 6 19
d 1.573815 4 6 tcp 1040 ------- 2 1.0 5.0 6 19
r 1.589277 2 3 tcp 1040 ------- 2 1.0 5.0 8 21
h 1.589277 3 6 tcp 1040 ------- 2 1.0 5.0 8 21
r 1.592691 3 2 ack 40 ------- 1 4.0 0.0 5 22
+ 1.592691 2 0 ack 40 ------- 1 4.0 0.0 5 22
- 1.592691 2 0 ack 40 ------- 1 4.0 0.0 5 22
- 1.600211 2 3 tcp 1040 ------- 2 1.0 5.0 10 27
+ 1.601544 3 6 tcp 1040 ------- 2 1.0 5.0 7 20
- 1.601544 3 6 tcp 1040 ------- 2 1.0 5.0 7 20
d 1.601548 4 6 tcp 1040 ------- 2 1.0 5.0 7 20
r 1.602851 2 0 ack 40 ------- 1 4.0 0.0 5 22
+ 1.602851 0 2 tcp 1040 ------- 1 0.0 4.0 9 28
- 1.602851 0 2 tcp 1040 ------- 1 0.0 4.0 9 28
+ 1.602851 0 2 tcp 1040 ------- 1 0.0 4.0 10 29
- 1.607011 0 2 tcp 1040 ------- 1 0.0 4.0 10 29
r 1.613815 6 5 tcp 1040 ------- 2 1.0 5.0 6 19
r 1.617011 2 3 tcp 1040 ------- 1 0.0 4.0 6 23
h 1.617011 3 6 tcp 1040 ------- 1 0.0 4.0 6 23
r 1.617011 0 2 tcp 1040 ------- 1 0.0 4.0 9 28
+ 1.617011 2 3 tcp 1040 ------- 1 0.0 4.0 9 28
r 1.621171 0 2 tcp 1040 ------- 1 0.0 4.0 10 29
+ 1.621171 2 3 tcp 1040 ------- 1 0.0 4.0 10 29
- 1.627944 2 3 tcp 1040 ------- 1 0.0 4.0 9 28
+ 1.629277 3 6 tcp 1040 ------- 2 1.0 5.0 8 21
- 1.629277 3 6 tcp 1040 ------- 2 1.0 5.0 8 21
d 1.629281 4 6 tcp 1040 ------- 2 1.0 5.0 8 21
r 1.641548 6 5 tcp 1040 ------- 2 1.0 5.0 7 20
h 1.641548 5 6 ack 40 ------- 2 5.0 1.0 7 30
r 1.644744 2 3 tcp 1040 ------- 1 0.0 4.0 7 24
h 1.644744 3 6 tcp 1040 ------- 1 0.0 4.0 7 24
- 1.655677 2 3 tcp 1040 ------- 1 0.0 4.0 10 29
+ 1.657011 3 6 tcp 1040 ------- 1 0.0 4.0 6 23
- 1.657011 3 6 tcp 1040 ------- 1 0.0 4.0 6 23
d 1.657015 5 6 tcp 1040 ------- 1 0.0 4.0 6 23
r 1.669281 6 5 tcp 1040 ------- 2 1.0 5.0 8 21
r 1.672477 2 3 tcp 1040 ------- 1 0.0 4.0 8 25
h 1.672477 3 6 tcp 1040 ------- 1 0.0 4.0 8 25
+ 1.681548 5 6 ack 40 ------- 2 5.0 1.0 7 30
- 1.681548 5 6 ack 40 ------- 2 5.0 1.0 7 30
d 1.681552 4 6 ack 40 ------- 2 5.0 1.0 7 30
+ 1.684744 3 6 tcp 1040 ------- 1 0.0 4.0 7 24
- 1.684744 3 6 tcp 1040 ------- 1 0.0 4.0 7 24
d 1.684748 5 6 tcp 1040 ------- 1 0.0 4.0 7 24
r 1.697015 6 4 tcp 1040 ------- 1 0.0 4.0 6 23
r 1.700211 2 3 tcp 1040 ------- 2 1.0 5.0 9 26
h 1.700211 3 6 tcp 1040 ------- 2 1.0 5.0 9 26
+ 1.712477 3 6 tcp 1040 ------- 1 0.0 4.0 8 25
- 1.712477 3 6 tcp 1040 ------- 1 0.0 4.0 8 25
d 1.712481 5 6 tcp 1040 ------- 1 0.0 4.0 8 25
r 1.721552 6 3 ack 40 ------- 2 5.0 1.0 7 30
+ 1.721552 3 2 ack 40 ------- 2 5.0 1.0 7 30
- 1.721552 3 2 ack 40 ------- 2 5.0 1.0 7 30
r 1.724748 6 4 tcp 1040 ------- 1 0.0 4.0 7 24
h 1.724748 4 6 ack 40 ------- 1 4.0 0.0 7 31
r 1.727944 2 3 tcp 1040 ------- 2 1.0 5.0 10 27
h 1.727944 3 6 tcp 1040 ------- 2 1.0 5.0 10 27
+ 1.740211 3 6 tcp 1040 ------- 2 1.0 5.0 9 26
- 1.740211 3 6 tcp 1040 ------- 2 1.0 5.0 9 26
d 1.740215 4 6 tcp 1040 ------- 2 1.0 5.0 9 26
r 1.752481 6 4 tcp 1040 ------- 1 0.0 4.0 8 25
r 1.755677 2 3 tcp 1040 ------- 1 0.0 4.0 9 28
h 1.755677 3 6 tcp 1040 ------- 1 0.0 4.0 9 28
+ 1.764748 4 6 ack 40 ------- 1 4.0 0.0 7 31
- 1.764748 4 6 ack 40 ------- 1 4.0 0.0 7 31
d 1.764752 5 6 ack 40 ------- 1 4.0 0.0 7 31
+ 1.767944 3 6 tcp 1040 ------- 2 1.0 5.0 10 27
- 1.767944 3 6 tcp 1040 ------- 2 1.0 5.0 10 27
d 1.767948 4 6 tcp 1040 ------- 2 1.0 5.0 10 27
h 1.769281 5 6 ack 40 ------- 2 5.0 1.0 8 32
r 1.780215 6 5 tcp 1040 ------- 2 1.0 5.0 9 26
r 1.783411 2 3 tcp 1040 ------- 1 0.0 4.0 10 29
h 1.783411 3 6 tcp 1040 ------- 1 0.0 4.0 10 29
+ 1.795677 3 6 tcp 1040 ------- 1 0.0 4.0 9 28
- 1.795677 3 6 tcp 1040 ------- 1 0.0 4.0 9 28
d 1.795681 5 6 tcp 1040 ------- 1 0.0 4.0 9 28
r 1.804752 6 3 ack 40 ------- 1 4.0 0.0 7 31
+ 1.804752 3 2 ack 40 ------- 1 4.0 0.0 7 31
- 1.804752 3 2 ack 40 ------- 1 4.0 0.0 7 31
r 1.807948 6 5 tcp 1040 ------- 2 1.0 5.0 10 27
h 1.807948 5 6 ack 40 ------- 2 5.0 1.0 10 33
+ 1.809281 5 6 ack 40 ------- 2 5.0 1.0 8 32
- 1.809281 5 6 ack 40 ------- 2 5.0 1.0 8 32
d 1.809285 4 6 ack 40 ------- 2 5.0 1.0 8 32
r 1.822619 3 2 ack 40 ------- 2 5.0 1.0 7 30
+ 1.822619 2 1 ack 40 ------- 2 5.0 1.0 7 30
- 1.822619 2 1 ack 40 ------- 2 5.0 1.0 7 30
+ 1.823411 3 6 tcp 1040 ------- 1 0.0 4.0 10 29
- 1.823411 3 6 tcp 1040 ------- 1 0.0 4.0 10 29
d 1.823415 5 6 tcp 1040 ------- 1 0.0 4.0 10 29
r 1.832779 2 1 ack 40 ------- 2 5.0 1.0 7 30
+ 1.832779 1 2 tcp 1040 ------- 2 1.0 5.0 11 34
- 1.832779 1 2 tcp 1040 ------- 2 1.0 5.0 11 34
+ 1.832779 1 2 tcp 1040 ------- 2 1.0 5.0 12 35
+ 1.832779 1 2 tcp 1040 ------- 2 1.0 5.0 13 36
r 1.835681 6 4 tcp 1040 ------- 1 0.0 4.0 9 28
h 1.835681 4 6 ack 40 ------- 1 4.0 0.0 9 37
- 1.836939 1 2 tcp 1040 ------- 2 1.0 5.0 12 35
- 1.841099 1 2 tcp 1040 ------- 2 1.0 5.0 13 36
r 1.846939 1 2 tcp 1040 ------- 2 1.0 5.0 11 34
+ 1.846939 2 3 tcp 1040 ------- 2 1.0 5.0 11 34
- 1.846939 2 3 tcp 1040 ------- 2 1.0 5.0 11 34
+ 1.847948 5 6 ack 40 ------- 2 5.0 1.0 10 33
- 1.847948 5 6 ack 40 ------- 2 5.0 1.0 10 33
d 1.847952 4 6 ack 40 ------- 2 5.0 1.0 10 33
r 1.849285 6 3 ack 40 ------- 2 5.0 1.0 8 32
+ 1.849285 3 2 ack 40 ------- 2 5.0 1.0 8 32
- 1.849285 3 2 ack 40 ------- 2 5.0 1.0 8 32
r 1.851099 1 2 tcp 1040 ------- 2 1.0 5.0 12 35
+ 1.851099 2 3 tcp 1040 ------- 2 1.0 5.0 12 35
r 1.855259 1 2 tcp 1040 ------- 2 1.0 5.0 13 36
+ 1.855259 2 3 tcp 1040 ------- 2 1.0 5.0 13 36
r 1.863415 6 4 tcp 1040 ------- 1 0.0 4.0 10 29
- 1.874672 2 3 tcp 1040 ------- 2 1.0 5.0 12 35
+ 1.875681 4 6 ack 40 ------- 1 4.0 0.0 9 37
- 1.875681 4 6 ack 40 ------- 1 4.0 0.0 9 37
d 1.875685 5 6 ack 40 ------- 1 4.0 0.0 9 37
r 1.887952 6 3 ack 40 ------- 2 5.0 1.0 10 33
+ 1.887952 3 2 ack 40 ------- 2 5.0 1.0 10 33
- 1.887952 3 2 ack 40 ------- 2 5.0 1.0 10 33
- 1.902405 2 3 tcp 1040 ------- 2 1.0 5.0 13 36
r 1.905819 3 2 ack 40 ------- 1 4.0 0.0 7 31
+ 1.905819 2 0 ack 40 ------- 1 4.0 0.0 7 31
- 1.905819 2 0 ack 40 ------- 1 4.0 0.0 7 31
r 1.915685 6 3 ack 40 ------- 1 4.0 0.0 9 37
+ 1.915685 3 2 ack 40 ------- 1 4.0 0.0 9 37
- 1.915685 3 2 ack 40 ------- 1 4.0 0.0 9 37
r 1.915979 2 0 ack 40 ------- 1 4.0 0.0 7 31
+ 1.915979 0 2 tcp 1040 ------- 1 0.0 4.0 11 38
- 1.915979 0 2 tcp 1040 ------- 1 0.0 4.0 11 38
+ 1.915979 0 2 tcp 1040 ------- 1 0.0 4.0 12 39
+ 1.915979 0 2 tcp 1040 ------- 1 0.0 4.0 13 40
- 1.920139 0 2 tcp 1040 ------- 1 0.0 4.0 12 39
- 1.924299 0 2 tcp 1040 ------- 1 0.0 4.0 13 40
r 1.930139 0 2 tcp 1040 ------- 1 0.0 4.0 11 38
+ 1.930139 2 3 tcp 1040 ------- 1 0.0 4.0 11 38
- 1.930139 2 3 tcp 1040 ------- 1 0.0 4.0 11 38
r 1.934299 0 2 tcp 1040 ------- 1 0.0 4.0 12 39
+ 1.934299 2 3 tcp 1040 ------- 1 0.0 4.0 12 39
r 1.938459 0 2 tcp 1040 ------- 1 0.0 4.0 13 40
+ 1.938459 2 3 tcp 1040 ------- 1 0.0 4.0 13 40
r 1.950352 3 2 ack 40 ------- 2 5.0 1.0 8 32
+ 1.950352 2 1 ack 40 ------- 2 5.0 1.0 8 32
- 1.950352 2 1 ack 40 ------- 2 5.0 1.0 8 32
- 1.957872 2 3 tcp 1040 ------- 1 0.0 4.0 12 39
r 1.960512 2 1 ack 40 ------- 2 5.0 1.0 8 32
+ 1.960512 1 2 tcp 1040 ------- 2 1.0 5.0 14 41
- 1.960512 1 2 tcp 1040 ------- 2 1.0 5.0 14 41
+ 1.960512 1 2 tcp 1040 ------- 2 1.0 5.0 15 42
h 1.963415 4 6 ack 40 ------- 1 4.0 0.0 10 43
- 1.964672 1 2 tcp 1040 ------- 2 1.0 5.0 15 42
r 1.974672 2 3 tcp 1040 ------- 2 1.0 5.0 11 34
h 1.974672 3 6 tcp 1040 ------- 2 1.0 5.0 11 34
r 1.974672 1 2 tcp 1040 ------- 2 1.0 5.0 14 41
+ 1.974672 2 3 tcp 1040 ------- 2 1.0 5.0 14 41
r 1.978832 1 2 tcp 1040 ------- 2 1.0 5.0 15 42
+ 1.978832 2 3 tcp 1040 ------- 2 1.0 5.0 15 42
- 1.985605 2 3 tcp 1040 ------- 1 0.0 4.0 13 40
r 1.989019 3 2 ack 40 ------- 2 5.0 1.0 10 33
+ 1.989019 2 1 ack 40 ------- 2 5.0 1.0 10 33
- 1.989019 2 1 ack 40 ------- 2 5.0 1.0 10 33
r 1.999179 2 1 ack 40 ------- 2 5.0 1.0 10 33
+ 1.999179 1 2 tcp 1040 ------- 2 1.0 5.0 16 44
- 1.999179 1 2 tcp 1040 ------- 2 1.0 5.0 16 44
+ 1.999179 1 2 tcp 1040 ------- 2 1.0 5.0 17 45
+ 1.999179 1 2 tcp 1040 ------- 2 1.0 5.0 18 46
r 2.002405 2 3 tcp 1040 ------- 2 1.0 5.0 12 35
h 2.002405 3 6 tcp 1040 ------- 2 1.0 5.0 12 35
- 2.003339 1 2 tcp 1040 ------- 2 1.0 5.0 17 45
+ 2.003415 4 6 ack 40 ------- 1 4.0 0.0 10 43
- 2.003415 4 6 ack 40 ------- 1 4.0 0.0 10 43
d 2.003419 5 6 ack 40 ------- 1 4.0 0.0 10 43
- 2.007499 1 2 tcp 1040 ------- 2 1.0 5.0 18 46
- 2.013339 2 3 tcp 1040 ------- 2 1.0 5.0 14 41
r 2.013339 1 2 tcp 1040 ------- 2 1.0 5.0 16 44
+ 2.013339 2 3 tcp 1040 ------- 2 1.0 5.0 16 44
+ 2.014672 3 6 tcp 1040 ------- 2 1.0 5.0 11 34
- 2.014672 3 6 tcp 1040 ------- 2 1.0 5.0 11 34
d 2.014676 4 6 tcp 1040 ------- 2 1.0 5.0 11 34
r 2.016752 3 2 ack 40 ------- 1 4.0 0.0 9 37
+ 2.016752 2 0 ack 40 ------- 1 4.0 0.0 9 37
- 2.016752 2 0 ack 40 ------- 1 4.0 0.0 9 37
r 2.017499 1 2 tcp 1040 ------- 2 1.0 5.0 17 45
+ 2.017499 2 3 tcp 1040 ------- 2 1.0 5.0 17 45
r 2.021659 1 2 tcp 1040 ------- 2 1.0 5.0 18 46
+ 2.021659 2 3 tcp 1040 ------- 2 1.0 5.0 18 46
r 2.026912 2 0 ack 40 ------- 1 4.0 0.0 9 37
+ 2.026912 0 2 tcp 1040 ------- 1 0.0 4.0 14 47
- 2.026912 0 2 tcp 1040 ------- 1 0.0 4.0 14 47
+ 2.026912 0 2 tcp 1040 ------- 1 0.0 4.0 15 48
+ 2.026912 0 2 tcp 1040 ------- 1 0.0 4.0 16 49
r 2.030139 2 3 tcp 1040 ------- 2 1.0 5.0 13 36
h 2.030139 3 6 tcp 1040 ------- 2 1.0 5.0 13 36
- 2.031072 0 2 tcp 1040 ------- 1 0.0 4.0 15 48
- 2.035232 0 2 tcp 1040 ------- 1 0.0 4.0 16 49
- 2.041072 2 3 tcp 1040 ------- 2 1.0 5.0 15 42
r 2.041072 0 2 tcp 1040 ------- 1 0.0 4.0 14 47
+ 2.041072 2 3 tcp 1040 ------- 1 0.0 4.0 14 47
+ 2.042405 3 6 tcp 1040 ------- 2 1.0 5.0 12 35
- 2.042405 3 6 tcp 1040 ------- 2 1.0 5.0 12 35
d 2.042409 4 6 tcp 1040 ------- 2 1.0 5.0 12 35
r 2.043419 6 3 ack 40 ------- 1 4.0 0.0 10 43
+ 2.043419 3 2 ack 40 ------- 1 4.0 0.0 10 43
- 2.043419 3 2 ack 40 ------- 1 4.0 0.0 10 43
r 2.045232 0 2 tcp 1040 ------- 1 0.0 4.0 15 48
+ 2.045232 2 3 tcp 1040 ------- 1 0.0 4.0 15 48
r 2.049392 0 2 tcp 1040 ------- 1 0.0 4.0 16 49
+ 2.049392 2 3 tcp 1040 ------- 1 0.0 4.0 16 49
r 2.054676 6 5 tcp 1040 ------- 2 1.0 5.0 11 34
r 2.057872 2 3 tcp 1040 ------- 1 0.0 4.0 11 38
h 2.057872 3 6 tcp 1040 ------- 1 0.0 4.0 11 38
- 2.068805 2 3 tcp 1040 ------- 2 1.0 5.0 16 44
+ 2.070139 3 6 tcp 1040 ------- 2 1.0 5.0 13 36
- 2.070139 3 6 tcp 1040 ------- 2 1.0 5.0 13 36
d 2.070143 4 6 tcp 1040 ------- 2 1.0 5.0 13 36
r 2.082409 6 5 tcp 1040 ------- 2 1.0 5.0 12 35
h 2.082409 5 6 ack 40 ------- 2 5.0 1.0 12 50
r 2.085605 2 3 tcp 1040 ------- 1 0.0 4.0 12 39
h 2.085605 3 6 tcp 1040 ------- 1 0.0 4.0 12 39
- 2.096539 2 3 tcp 1040 ------- 2 1.0 5.0 17 45
+ 2.097872 3 6 tcp 1040 ------- 1 0.0 4.0 11 38
- 2.097872 3 6 tcp 1040 ------- 1 0.0 4.0 11 38
d 2.097876 5 6 tcp 1040 ------- 1 0.0 4.0 11 38
r 2.110143 6 5 tcp 1040 ------- 2 1.0 5.0 13 36
r 2.113339 2 3 tcp 1040 ------- 1 0.0 4.0 13 40
h 2.113339 3 6 tcp 1040 ------- 1 0.0 4.0 13 40
+ 2.122409 5 6 ack 40 ------- 2 5.0 1.0 12 50
- 2.122409 5 6 ack 40 ------- 2 5.0 1.0 12 50
d 2.122413 4 6 ack 40 ------- 2 5.0 1.0 12 50
- 2.124272 2 3 tcp 1040 ------- 2 1.0 5.0 18 46
+ 2.125605 3 6 tcp 1040 ------- 1 0.0 4.0 12 39
- 2.125605 3 6 tcp 1040 ------- 1 0.0 4.0 12 39
d 2.125609 5 6 tcp 1040 ------- 1 0.0 4.0 12 39
r 2.137876 6 4 tcp 1040 ------- 1 0.0 4.0 11 38
r 2.141072 2 3 tcp 1040 ------- 2 1.0 5.0 14 41
h 2.141072 3 6 tcp 1040 ------- 2 1.0 5.0 14 41
r 2.144485 3 2 ack 40 ------- 1 4.0 0.0 10 43
+ 2.144485 2 0 ack 40 ------- 1 4.0 0.0 10 43
- 2.144485 2 0 ack 40 ------- 1 4.0 0.0 10 43
- 2.152005 2 3 tcp 1040 ------- 1 0.0 4.0 14 47
+ 2.153339 3 6 tcp 1040 ------- 1 0.0 4.0 13 40
- 2.153339 3 6 tcp 1040 ------- 1 0.0 4.0 13 40
d 2.153343 5 6 tcp 1040 ------- 1 0.0 4.0 13 40
r 2.154645 2 0 ack 40 ------- 1 4.0 0.0 10 43
+ 2.154645 0 2 tcp 1040 ------- 1 0.0 4.0 17 51
- 2.154645 0 2 tcp 1040 ------- 1 0.0 4.0 17 51
+ 2.154645 0 2 tcp 1040 ------- 1 0.0 4.0 18 52
- 2.158805 0 2 tcp 1040 ------- 1 0.0 4.0 18 52
r 2.162413 6 3 ack 40 ------- 2 5.0 1.0 12 50
+ 2.162413 3 2 ack 40 ------- 2 5.0 1.0 12 50
- 2.162413 3 2 ack 40 ------- 2 5.0 1.0 12 50
r 2.165609 6 4 tcp 1040 ------- 1 0.0 4.0 12 39
h 2.165609 4 6 ack 40 ------- 1 4.0 0.0 12 53
r 2.168805 2 3 tcp 1040 ------- 2 1.0 5.0 15 42
h 2.168805 3 6 tcp 1040 ------- 2 1.0 5.0 15 42
r 2.168805 0 2 tcp 1040 ------- 1 0.0 4.0 17 51
+ 2.168805 2 3 tcp 1040 ------- 1 0.0 4.0 17 51
r 2.172965 0 2 tcp 1040 ------- 1 0.0 4.0 18 52
+ 2.172965 2 3 tcp 1040 ------- 1 0.0 4.0 18 52
- 2.179739 2 3 tcp 1040 ------- 1 0.0 4.0 15 48
+ 2.181072 3 6 tcp 1040 ------- 2 1.0 5.0 14 41
- 2.181072 3 6 tcp 1040 ------- 2 1.0 5.0 14 41
d 2.181076 4 6 tcp 1040 ------- 2 1.0 5.0 14 41
r 2.193343 6 4 tcp 1040 ------- 1 0.0 4.0 13 40
r 2.196539 2 3 tcp 1040 ------- 2 1.0 5.0 16 44
h 2.196539 3 6 tcp 1040 ------- 2 1.0 5.0 16 44
+ 2.205609 4 6 ack 40 ------- 1 4.0 0.0 12 53
- 2.205609 4 6 ack 40 ------- 1 4.0 0.0 12 53
d 2.205613 5 6 ack 40 ------- 1 4.0 0.0 12 53
- 2.207472 2 3 tcp 1040 ------- 1 0.0 4.0 16 49
+ 2.208805 3 6 tcp 1040 ------- 2 1.0 5.0 15 42
- 2.208805 3 6 tcp 1040 ------- 2 1.0 5.0 15 42
d 2.208809 4 6 tcp 1040 ------- 2 1.0 5.0 15 42
h 2.210143 5 6 ack 40 ------- 2 5.0 1.0 13 54
r 2.221076 6 5 tcp 1040 ------- 2 1.0 5.0 14 41
r 2.224272 2 3 tcp 1040 ------- 2 1.0 5.0 17 45
h 2.224272 3 6 tcp 1040 ------- 2 1.0 5.0 17 45
- 2.235205 2 3 tcp 1040 ------- 1 0.0 4.0 17 51
+ 2.236539 3 6 tcp 1040 ------- 2 1.0 5.0 16 44
- 2.236539 3 6 tcp 1040 ------- 2 1.0 5.0 16 44
d 2.236543 4 6 tcp 1040 ------- 2 1.0 5.0 16 44
r 2.245613 6 3 ack 40 ------- 1 4.0 0.0 12 53
+ 2.245613 3 2 ack 40 ------- 1 4.0 0.0 12 53
- 2.245613 3 2 ack 40 ------- 1 4.0 0.0 12 53
r 2.248809 6 5 tcp 1040 ------- 2 1.0 5.0 15 42
h 2.248809 5 6 ack 40 ------- 2 5.0 1.0 15 55
+ 2.250143 5 6 ack 40 ------- 2 5.0 1.0 13 54
- 2.250143 5 6 ack 40 ------- 2 5.0 1.0 13 54
d 2.250147 4 6 ack 40 ------- 2 5.0 1.0 13 54
r 2.252005 2 3 tcp 1040 ------- 2 1.0 5.0 18 46
h 2.252005 3 6 tcp 1040 ------- 2 1.0 5.0 18 46
- 2.262939 2 3 tcp 1040 ------- 1 0.0 4.0 18 52
r 2.26348 3 2 ack 40 ------- 2 5.0 1.0 12 50
+ 2.26348 2 1 ack 40 ------- 2 5.0 1.0 12 50
- 2.26348 2 1 ack 40 ------- 2 5.0 1.0 12 50
+ 2.264272 3 6 tcp 1040 ------- 2 1.0 5.0 17 45
- 2.264272 3 6 tcp 1040 ------- 2 1.0 5.0 17 45
d 2.264276 4 6 tcp 1040 ------- 2 1.0 5.0 17 45
r 2.27364 2 1 ack 40 ------- 2 5.0 1.0 12 50
+ 2.27364 1 2 tcp 1040 ------- 2 1.0 5.0 19 56
- 2.27364 1 2 tcp 1040 ------- 2 1.0 5.0 19 56
+ 2.27364 1 2 tcp 1040 ------- 2 1.0 5.0 20 57
+ 2.27364 1 2 tcp 1040 ------- 2 1.0 5.0 21 58
r 2.276543 6 5 tcp 1040 ------- 2 1.0 5.0 16 44
- 2.2778 1 2 tcp 1040 ------- 2 1.0 5.0 20 57
r 2.279739 2 3 tcp 1040 ------- 1 0.0 4.0 14 47
h 2.279739 3 6 tcp 1040 ------- 1 0.0 4.0 14 47
- 2.28196 1 2 tcp 1040 ------- 2 1.0 5.0 21 58
r 2.2878 1 2 tcp 1040 ------- 2 1.0 5.0 19 56
+ 2.2878 2 3 tcp 1040 ------- 2 1.0 5.0 19 56
+ 2.288809 5 6 ack 40 ------- 2 5.0 1.0 15 55
- 2.288809 5 6 ack 40 ------- 2 5.0 1.0 15 55
d 2.288813 4 6 ack 40 ------- 2 5.0 1.0 15 55
r 2.290147 6 3 ack 40 ------- 2 5.0 1.0 13 54
+ 2.290147 3 2 ack 40 ------- 2 5.0 1.0 13 54
- 2.290147 3 2 ack 40 ------- 2 5.0 1.0 13 54
- 2.290672 2 3 tcp 1040 ------- 2 1.0 5.0 19 56
r 2.29196 1 2 tcp 1040 ------- 2 1.0 5.0 20 57
+ 2.29196 2 3 tcp 1040 ------- 2 1.0 5.0 20 57
+ 2.292005 3 6 tcp 1040 ------- 2 1.0 5.0 18 46
- 2.292005 3 6 tcp 1040 ------- 2 1.0 5.0 18 46
d 2.292009 4 6 tcp 1040 ------- 2 1.0 5.0 18 46
h 2.293343 4 6 ack 40 ------- 1 4.0 0.0 13 59
r 2.29612 1 2 tcp 1040 ------- 2 1.0 5.0 21 58
+ 2.29612 2 3 tcp 1040 ------- 2 1.0 5.0 21 58
r 2.304276 6 5 tcp 1040 ------- 2 1.0 5.0 17 45
h 2.304276 5 6 ack 40 ------- 2 5.0 1.0 17 60
r 2.307472 2 3 tcp 1040 ------- 1 0.0 4.0 15 48
h 2.307472 3 6 tcp 1040 ------- 1 0.0 4.0 15 48
- 2.318405 2 3 tcp 1040 ------- 2 1.0 5.0 20 57
+ 2.319739 3 6 tcp 1040 ------- 1 0.0 4.0 14 47
- 2.319739 3 6 tcp 1040 ------- 1 0.0 4.0 14 47
d 2.319743 5 6 tcp 1040 ------- 1 0.0 4.0 14 47
r 2.328813 6 3 ack 40 ------- 2 5.0 1.0 15 55
+ 2.328813 3 2 ack 40 ------- 2 5.0 1.0 15 55
- 2.328813 3 2 ack 40 ------- 2 5.0 1.0 15 55
r 2.332009 6 5 tcp 1040 ------- 2 1.0 5.0 18 46
+ 2.333343 4 6 ack 40 ------- 1 4.0 0.0 13 59
- 2.333343 4 6 ack 40 ------- 1 4.0 0.0 13 59
d 2.333347 5 6 ack 40 ------- 1 4.0 0.0 13 59
r 2.335205 2 3 tcp 1040 ------- 1 0.0 4.0 16 49
h 2.335205 3 6 tcp 1040 ------- 1 0.0 4.0 16 49
+ 2.344276 5 6 ack 40 ------- 2 5.0 1.0 17 60
- 2.344276 5 6 ack 40 ------- 2 5.0 1.0 17 60
d 2.34428 4 6 ack 40 ------- 2 5.0 1.0 17 60
- 2.346139 2 3 tcp 1040 ------- 2 1.0 5.0 21 58
r 2.34668 3 2 ack 40 ------- 1 4.0 0.0 12 53
+ 2.34668 2 0 ack 40 ------- 1 4.0 0.0 12 53
- 2.34668 2 0 ack 40 ------- 1 4.0 0.0 12 53
+ 2.347472 3 6 tcp 1040 ------- 1 0.0 4.0 15 48
- 2.347472 3 6 tcp 1040 ------- 1 0.0 4.0 15 48
d 2.347476 5 6 tcp 1040 ------- 1 0.0 4.0 15 48
r 2.35684 2 0 ack 40 ------- 1 4.0 0.0 12 53
+ 2.35684 0 2 tcp 1040 ------- 1 0.0 4.0 19 61
- 2.35684 0 2 tcp 1040 ------- 1 0.0 4.0 19 61
+ 2.35684 0 2 tcp 1040 ------- 1 0.0 4.0 20 62
+ 2.35684 0 2 tcp 1040 ------- 1 0.0 4.0 21 63
r 2.359743 6 4 tcp 1040 ------- 1 0.0 4.0 14 47
- 2.361 0 2 tcp 1040 ------- 1 0.0 4.0 20 62
r 2.362939 2 3 tcp 1040 ------- 1 0.0 4.0 17 51
h 2.362939 3 6 tcp 1040 ------- 1 0.0 4.0 17 51
- 2.36516 0 2 tcp 1040 ------- 1 0.0 4.0 21 63
r 2.371 0 2 tcp 1040 ------- 1 0.0 4.0 19 61
+ 2.371 2 3 tcp 1040 ------- 1 0.0 4.0 19 61
r 2.373347 6 3 ack 40 ------- 1 4.0 0.0 13 59
+ 2.373347 3 2 ack 40 ------- 1 4.0 0.0 13 59
- 2.373347 3 2 ack 40 ------- 1 4.0 0.0 13 59
- 2.373872 2 3 tcp 1040 ------- 1 0.0 4.0 19 61
r 2.37516 0 2 tcp 1040 ------- 1 0.0 4.0 20 62
+ 2.37516 2 3 tcp 1040 ------- 1 0.0 4.0 20 62
+ 2.375205 3 6 tcp 1040 ------- 1 0.0 4.0 16 49
- 2.375205 3 6 tcp 1040 ------- 1 0.0 4.0 16 49
d 2.375209 5 6 tcp 1040 ------- 1 0.0 4.0 16 49
r 2.37932 0 2 tcp 1040 ------- 1 0.0 4.0 21 63
+ 2.37932 2 3 tcp 1040 ------- 1 0.0 4.0 21 63
r 2.38428 6 3 ack 40 ------- 2 5.0 1.0 17 60
+ 2.38428 3 2 ack 40 ------- 2 5.0 1.0 17 60
- 2.38428 3 2 ack 40 ------- 2 5.0 1.0 17 60
r 2.387476 6 4 tcp 1040 ------- 1 0.0 4.0 15 48
h 2.387476 4 6 ack 40 ------- 1 4.0 0.0 15 64
r 2.390672 2 3 tcp 1040 ------- 1 0.0 4.0 18 52
h 2.390672 3 6 tcp 1040 ------- 1 0.0 4.0 18 52
r 2.391213 3 2 ack 40 ------- 2 5.0 1.0 13 54
+ 2.391213 2 1 ack 40 ------- 2 5.0 1.0 13 54
- 2.391213 2 1 ack 40 ------- 2 5.0 1.0 13 54