V -t * -v 1.0a5 -a 0
A -t * -n 1 -p 0 -o 0x7fffffff -c 30 -a 1
A -t * -h 1 -m 1073741823 -s 0
n -t * -a 4 -s 4 -S UP -v circle -c black -i black
n -t * -a 0 -s 0 -S UP -v circle -c black -i black
n -t * -a 5 -s 5 -S UP -v circle -c black -i black
n -t * -a 1 -s 1 -S UP -v circle -c black -i black
n -t * -a 6 -s 6 -S UP -v circle -c black -i black
n -t * -a 2 -s 2 -S UP -v circle -c black -i black
n -t * -a 3 -s 3 -S UP -v circle -c black -i black
X -t * -n 7 -r 0.2Mb -D 40ms -o left
L -t * -s 7 -d 0 -o up
L -t * -s 7 -d 1 -o down
L -t * -s 7 -d 2 -o up
L -t * -s 7 -d 3 -o down
L -t * -s 7 -d 4 -o up
L -t * -s 7 -d 5 -o down
L -t * -s 7 -d 6 -o up
h -t 1 -s 0 -d 7 -p tcp -e 40 -c 0 -i 0 -a 0 -x {0.0 5.0 0 ------- null}
+ -t 1.04 -s 0 -d 7 -p tcp -e 40 -c 0 -i 0 -a 0 -x {0.0 5.0 0 ------- null}
- -t 1.04 -s 0 -d 7 -p tcp -e 40 -c 0 -i 0 -a 0 -x {0.0 5.0 0 ------- null}
h -t 1.04 -s 0 -d 7 -p tcp -e 40 -c 0 -i 0 -a 0 -x {0.0 5.0 -1 ------- null}
r -t 1.082564 -s 7 -d 5 -p tcp -e 40 -c 0 -i 0 -a 0 -x {0.0 5.0 0 ------- null}
h -t 1.082564 -s 5 -d 7 -p ack -e 40 -c 0 -i 1 -a 0 -x {5.0 0.0 0 ------- null}
+ -t 1.122564 -s 5 -d 7 -p ack -e 40 -c 0 -i 1 -a 0 -x {5.0 0.0 0 ------- null}
- -t 1.122564 -s 5 -d 7 -p ack -e 40 -c 0 -i 1 -a 0 -x {5.0 0.0 0 ------- null}
h -t 1.122564 -s 5 -d 7 -p ack -e 40 -c 0 -i 1 -a 0 -x {5.0 0.0 -1 ------- null}
r -t 1.165128 -s 7 -d 0 -p ack -e 40 -c 0 -i 1 -a 0 -x {5.0 0.0 0 ------- null}
h -t 1.165128 -s 0 -d 7 -p tcp -e 1040 -c 0 -i 2 -a 0 -x {0.0 5.0 1 ------- null}
h -t 1.165128 -s 0 -d 7 -p tcp -e 1040 -c 0 -i 3 -a 0 -x {0.0 5.0 2 ------- null}
+ -t 1.205128 -s 0 -d 7 -p tcp -e 1040 -c 0 -i 2 -a 0 -x {0.0 5.0 1 ------- null}
- -t 1.205128 -s 0 -d 7 -p tcp -e 1040 -c 0 -i 2 -a 0 -x {0.0 5.0 1 ------- null}
h -t 1.205128 -s 0 -d 7 -p tcp -e 1040 -c 0 -i 2 -a 0 -x {0.0 5.0 -1 ------- null}
+ -t 1.205128 -s 0 -d 7 -p tcp -e 1040 -c 0 -i 3 -a 0 -x {0.0 5.0 2 ------- null}
- -t 1.247768 -s 0 -d 7 -p tcp -e 1040 -c 0 -i 3 -a 0 -x {0.0 5.0 2 ------- null}
h -t 1.247768 -s 0 -d 7 -p tcp -e 1040 -c 0 -i 3 -a 0 -x {0.0 5.0 -1 ------- null}
r -t 1.287292 -s 7 -d 5 -p tcp -e 1040 -c 0 -i 2 -a 0 -x {0.0 5.0 1 ------- null}
h -t 1.287292 -s 5 -d 7 -p ack -e 40 -c 0 -i 4 -a 0 -x {5.0 0.0 1 ------- null}
+ -t 1.327292 -s 5 -d 7 -p ack -e 40 -c 0 -i 4 -a 0 -x {5.0 0.0 1 ------- null}
- -t 1.327292 -s 5 -d 7 -p ack -e 40 -c 0 -i 4 -a 0 -x {5.0 0.0 1 ------- null}
h -t 1.327292 -s 5 -d 7 -p ack -e 40 -c 0 -i 4 -a 0 -x {5.0 0.0 -1 ------- null}
r -t 1.329932 -s 7 -d 5 -p tcp -e 1040 -c 0 -i 3 -a 0 -x {0.0 5.0 2 ------- null}
h -t 1.329932 -s 5 -d 7 -p ack -e 40 -c 0 -i 5 -a 0 -x {5.0 0.0 2 ------- null}
r -t 1.369856 -s 7 -d 0 -p ack -e 40 -c 0 -i 4 -a 0 -x {5.0 0.0 1 ------- null}
h -t 1.369856 -s 0 -d 7 -p tcp -e 1040 -c 0 -i 6 -a 0 -x {0.0 5.0 3 ------- null}
h -t 1.369856 -s 0 -d 7 -p tcp -e 1040 -c 0 -i 7 -a 0 -x {0.0 5.0 4 ------- null}
+ -t 1.369932 -s 5 -d 7 -p ack -e 40 -c 0 -i 5 -a 0 -x {5.0 0.0 2 ------- null}
- -t 1.369932 -s 5 -d 7 -p ack -e 40 -c 0 -i 5 -a 0 -x {5.0 0.0 2 ------- null}
h -t 1.369932 -s 5 -d 7 -p ack -e 40 -c 0 -i 5 -a 0 -x {5.0 0.0 -1 ------- null}
+ -t 1.409856 -s 0 -d 7 -p tcp -e 1040 -c 0 -i 6 -a 0 -x {0.0 5.0 3 ------- null}
- -t 1.409856 -s 0 -d 7 -p tcp -e 1040 -c 0 -i 6 -a 0 -x {0.0 5.0 3 ------- null}
h -t 1.409856 -s 0 -d 7 -p tcp -e 1040 -c 0 -i 6 -a 0 -x {0.0 5.0 -1 ------- null}
+ -t 1.409856 -s 0 -d 7 -p tcp -e 1040 -c 0 -i 7 -a 0 -x {0.0 5.0 4 ------- null}
r -t 1.412496 -s 7 -d 0 -p ack -e 40 -c 0 -i 5 -a 0 -x {5.0 0.0 2 ------- null}
h -t 1.412496 -s 0 -d 7 -p tcp -e 1040 -c 0 -i 8 -a 0 -x {0.0 5.0 5 ------- null}
h -t 1.412496 -s 0 -d 7 -p tcp -e 1040 -c 0 -i 9 -a 0 -x {0.0 5.0 6 ------- null}
+ -t 1.452496 -s 0 -d 7 -p tcp -e 1040 -c 0 -i 8 -a 0 -x {0.0 5.0 5 ------- null}
+ -t 1.452496 -s 0 -d 7 -p tcp -e 1040 -c 0 -i 9 -a 0 -x {0.0 5.0 6 ------- null}
- -t 1.452496 -s 0 -d 7 -p tcp -e 1040 -c 0 -i 7 -a 0 -x {0.0 5.0 4 ------- null}
h -t 1.452496 -s 0 -d 7 -p tcp -e 1040 -c 0 -i 7 -a 0 -x {0.0 5.0 -1 ------- null}
r -t 1.49202 -s 7 -d 5 -p tcp -e 1040 -c 0 -i 6 -a 0 -x {0.0 5.0 3 ------- null}
h -t 1.49202 -s 5 -d 7 -p ack -e 40 -c 0 -i 10 -a 0 -x {5.0 0.0 3 ------- null}
- -t 1.495136 -s 0 -d 7 -p tcp -e 1040 -c 0 -i 8 -a 0 -x {0.0 5.0 5 ------- null}
h -t 1.495136 -s 0 -d 7 -p tcp -e 1040 -c 0 -i 8 -a 0 -x {0.0 5.0 -1 ------- null}
+ -t 1.53202 -s 5 -d 7 -p ack -e 40 -c 0 -i 10 -a 0 -x {5.0 0.0 3 ------- null}
- -t 1.53202 -s 5 -d 7 -p ack -e 40 -c 0 -i 10 -a 0 -x {5.0 0.0 3 ------- null}
h -t 1.53202 -s 5 -d 7 -p ack -e 40 -c 0 -i 10 -a 0 -x {5.0 0.0 -1 ------- null}
r -t 1.53466 -s 7 -d 5 -p tcp -e 1040 -c 0 -i 7 -a 0 -x {0.0 5.0 4 ------- null}
h -t 1.53466 -s 5 -d 7 -p ack -e 40 -c 0 -i 11 -a 0 -x {5.0 0.0 4 ------- null}
- -t 1.537776 -s 0 -d 7 -p tcp -e 1040 -c 0 -i 9 -a 0 -x {0.0 5.0 6 ------- null}
h -t 1.537776 -s 0 -d 7 -p tcp -e 1040 -c 0 -i 9 -a 0 -x {0.0 5.0 -1 ------- null}
+ -t 1.57466 -s 5 -d 7 -p ack -e 40 -c 0 -i 11 -a 0 -x {5.0 0.0 4 ------- null}
- -t 1.57466 -s 5 -d 7 -p ack -e 40 -c 0 -i 11 -a 0 -x {5.0 0.0 4 ------- null}
h -t 1.57466 -s 5 -d 7 -p ack -e 40 -c 0 -i 11 -a 0 -x {5.0 0.0 -1 ------- null}
r -t 1.5773 -s 7 -d 5 -p tcp -e 1040 -c 0 -i 8 -a 0 -x {0.0 5.0 5 ------- null}
h -t 1.5773 -s 5 -d 7 -p ack -e 40 -c 0 -i 12 -a 0 -x {5.0 0.0 5 ------- null}
r -t 1.580984 -s 7 -d 0 -p ack -e 40 -c 0 -i 10 -a 0 -x {5.0 0.0 3 ------- null}
h -t 1.580984 -s 0 -d 7 -p tcp -e 1040 -c 0 -i 13 -a 0 -x {0.0 5.0 7 ------- null}
h -t 1.580984 -s 0 -d 7 -p tcp -e 1040 -c 0 -i 14 -a 0 -x {0.0 5.0 8 ------- null}
+ -t 1.6173 -s 5 -d 7 -p ack -e 40 -c 0 -i 12 -a 0 -x {5.0 0.0 5 ------- null}
- -t 1.6173 -s 5 -d 7 -p ack -e 40 -c 0 -i 12 -a 0 -x {5.0 0.0 5 ------- null}
h -t 1.6173 -s 5 -d 7 -p ack -e 40 -c 0 -i 12 -a 0 -x {5.0 0.0 -1 ------- null}
+ -t 1.620984 -s 0 -d 7 -p tcp -e 1040 -c 0 -i 13 -a 0 -x {0.0 5.0 7 ------- null}
- -t 1.620984 -s 0 -d 7 -p tcp -e 1040 -c 0 -i 13 -a 0 -x {0.0 5.0 7 ------- null}
h -t 1.620984 -s 0 -d 7 -p tcp -e 1040 -c 0 -i 13 -a 0 -x {0.0 5.0 -1 ------- null}
+ -t 1.620984 -s 0 -d 7 -p tcp -e 1040 -c 0 -i 14 -a 0 -x {0.0 5.0 8 ------- null}
r -t 1.623628 -s 7 -d 5 -p tcp -e 1040 -c 0 -i 9 -a 0 -x {0.0 5.0 6 ------- null}
h -t 1.623628 -s 5 -d 7 -p ack -e 40 -c 0 -i 15 -a 0 -x {5.0 0.0 6 ------- null}
r -t 1.626672 -s 7 -d 0 -p ack -e 40 -c 0 -i 11 -a 0 -x {5.0 0.0 4 ------- null}
h -t 1.626672 -s 0 -d 7 -p tcp -e 1040 -c 0 -i 16 -a 0 -x {0.0 5.0 9 ------- null}
h -t 1.626672 -s 0 -d 7 -p tcp -e 1040 -c 0 -i 17 -a 0 -x {0.0 5.0 10 ------- null}
r -t 1.659864 -s 7 -d 0 -p ack -e 40 -c 0 -i 12 -a 0 -x {5.0 0.0 5 ------- null}
h -t 1.659864 -s 0 -d 7 -p tcp -e 1040 -c 0 -i 18 -a 0 -x {0.0 5.0 11 ------- null}
h -t 1.659864 -s 0 -d 7 -p tcp -e 1040 -c 0 -i 19 -a 0 -x {0.0 5.0 12 ------- null}
- -t 1.663624 -s 0 -d 7 -p tcp -e 1040 -c 0 -i 14 -a 0 -x {0.0 5.0 8 ------- null}
h -t 1.663624 -s 0 -d 7 -p tcp -e 1040 -c 0 -i 14 -a 0 -x {0.0 5.0 -1 ------- null}
+ -t 1.663628 -s 5 -d 7 -p ack -e 40 -c 0 -i 15 -a 0 -x {5.0 0.0 6 ------- null}
- -t 1.663628 -s 5 -d 7 -p ack -e 40 -c 0 -i 15 -a 0 -x {5.0 0.0 6 ------- null}
h -t 1.663628 -s 5 -d 7 -p ack -e 40 -c 0 -i 15 -a 0 -x {5.0 0.0 -1 ------- null}
+ -t 1.666672 -s 0 -d 7 -p tcp -e 1040 -c 0 -i 16 -a 0 -x {0.0 5.0 9 ------- null}
+ -t 1.666672 -s 0 -d 7 -p tcp -e 1040 -c 0 -i 17 -a 0 -x {0.0 5.0 10 ------- null}
+ -t 1.699864 -s 0 -d 7 -p tcp -e 1040 -c 0 -i 18 -a 0 -x {0.0 5.0 11 ------- null}
+ -t 1.699864 -s 0 -d 7 -p tcp -e 1040 -c 0 -i 19 -a 0 -x {0.0 5.0 12 ------- null}
r -t 1.703148 -s 7 -d 5 -p tcp -e 1040 -c 0 -i 13 -a 0 -x {0.0 5.0 7 ------- null}
h -t 1.703148 -s 5 -d 7 -p ack -e 40 -c 0 -i 20 -a 0 -x {5.0 0.0 7 ------- null}
- -t 1.706912 -s 0 -d 7 -p tcp -e 1040 -c 0 -i 16 -a 0 -x {0.0 5.0 9 ------- null}
h -t 1.706912 -s 0 -d 7 -p tcp -e 1040 -c 0 -i 16 -a 0 -x {0.0 5.0 -1 ------- null}
+ -t 1.743148 -s 5 -d 7 -p ack -e 40 -c 0 -i 20 -a 0 -x {5.0 0.0 7 ------- null}
r -t 1.746436 -s 7 -d 5 -p tcp -e 1040 -c 0 -i 14 -a 0 -x {0.0 5.0 8 ------- null}
h -t 1.746436 -s 5 -d 7 -p ack -e 40 -c 0 -i 21 -a 0 -x {5.0 0.0 8 ------- null}
- -t 1.75276 -s 0 -d 7 -p tcp -e 1040 -c 0 -i 17 -a 0 -x {0.0 5.0 10 ------- null}
h -t 1.75276 -s 0 -d 7 -p tcp -e 1040 -c 0 -i 17 -a 0 -x {0.0 5.0 -1 ------- null}
+ -t 1.786436 -s 5 -d 7 -p ack -e 40 -c 0 -i 21 -a 0 -x {5.0 0.0 8 ------- null}
r -t 1.792284 -s 7 -d 5 -p tcp -e 1040 -c 0 -i 16 -a 0 -x {0.0 5.0 9 ------- null}
h -t 1.792284 -s 5 -d 7 -p ack -e 40 -c 0 -i 22 -a 0 -x {5.0 0.0 9 ------- null}
- -t 1.796048 -s 0 -d 7 -p tcp -e 1040 -c 0 -i 18 -a 0 -x {0.0 5.0 11 ------- null}
h -t 1.796048 -s 0 -d 7 -p tcp -e 1040 -c 0 -i 18 -a 0 -x {0.0 5.0 -1 ------- null}
+ -t 1.832284 -s 5 -d 7 -p ack -e 40 -c 0 -i 22 -a 0 -x {5.0 0.0 9 ------- null}
r -t 1.835572 -s 7 -d 5 -p tcp -e 1040 -c 0 -i 17 -a 0 -x {0.0 5.0 10 ------- null}
h -t 1.835572 -s 5 -d 7 -p ack -e 40 -c 0 -i 23 -a 0 -x {5.0 0.0 10 ------- null}
- -t 1.841896 -s 0 -d 7 -p tcp -e 1040 -c 0 -i 19 -a 0 -x {0.0 5.0 12 ------- null}
h -t 1.841896 -s 0 -d 7 -p tcp -e 1040 -c 0 -i 19 -a 0 -x {0.0 5.0 -1 ------- null}
+ -t 1.875572 -s 5 -d 7 -p ack -e 40 -c 0 -i 23 -a 0 -x {5.0 0.0 10 ------- null}
r -t 1.88142 -s 7 -d 5 -p tcp -e 1040 -c 0 -i 18 -a 0 -x {0.0 5.0 11 ------- null}
h -t 1.88142 -s 5 -d 7 -p ack -e 40 -c 0 -i 24 -a 0 -x {5.0 0.0 11 ------- null}
- -t 1.90702 -s 5 -d 7 -p ack -e 40 -c 0 -i 20 -a 0 -x {5.0 0.0 7 ------- null}
h -t 1.90702 -s 5 -d 7 -p ack -e 40 -c 0 -i 20 -a 0 -x {5.0 0.0 -1 ------- null}
- -t 1.91006 -s 5 -d 7 -p ack -e 40 -c 0 -i 21 -a 0 -x {5.0 0.0 8 ------- null}
h -t 1.91006 -s 5 -d 7 -p ack -e 40 -c 0 -i 21 -a 0 -x {5.0 0.0 -1 ------- null}
- -t 1.9131 -s 5 -d 7 -p ack -e 40 -c 0 -i 22 -a 0 -x {5.0 0.0 9 ------- null}
h -t 1.9131 -s 5 -d 7 -p ack -e 40 -c 0 -i 22 -a 0 -x {5.0 0.0 -1 ------- null}
- -t 1.91614 -s 5 -d 7 -p ack -e 40 -c 0 -i 23 -a 0 -x {5.0 0.0 10 ------- null}
h -t 1.91614 -s 5 -d 7 -p ack -e 40 -c 0 -i 23 -a 0 -x {5.0 0.0 -1 ------- null}
+ -t 1.92142 -s 5 -d 7 -p ack -e 40 -c 0 -i 24 -a 0 -x {5.0 0.0 11 ------- null}
- -t 1.92142 -s 5 -d 7 -p ack -e 40 -c 0 -i 24 -a 0 -x {5.0 0.0 11 ------- null}
h -t 1.92142 -s 5 -d 7 -p ack -e 40 -c 0 -i 24 -a 0 -x {5.0 0.0 -1 ------- null}
r -t 1.924708 -s 7 -d 5 -p tcp -e 1040 -c 0 -i 19 -a 0 -x {0.0 5.0 12 ------- null}
h -t 1.924708 -s 5 -d 7 -p ack -e 40 -c 0 -i 25 -a 0 -x {5.0 0.0 12 ------- null}
r -t 1.946544 -s 7 -d 0 -p ack -e 40 -c 0 -i 15 -a 0 -x {5.0 0.0 6 ------- null}
h -t 1.946544 -s 0 -d 7 -p tcp -e 1040 -c 0 -i 26 -a 0 -x {0.0 5.0 13 ------- null}
h -t 1.946544 -s 0 -d 7 -p tcp -e 1040 -c 0 -i 27 -a 0 -x {0.0 5.0 14 ------- null}
r -t 1.949584 -s 7 -d 0 -p ack -e 40 -c 0 -i 20 -a 0 -x {5.0 0.0 7 ------- null}
h -t 1.949584 -s 0 -d 7 -p tcp -e 1040 -c 0 -i 28 -a 0 -x {0.0 5.0 15 ------- null}
h -t 1.949584 -s 0 -d 7 -p tcp -e 1040 -c 0 -i 29 -a 0 -x {0.0 5.0 16 ------- null}
r -t 1.952624 -s 7 -d 0 -p ack -e 40 -c 0 -i 21 -a 0 -x {5.0 0.0 8 ------- null}
h -t 1.952624 -s 0 -d 7 -p tcp -e 1040 -c 0 -i 30 -a 0 -x {0.0 5.0 17 ------- null}
h -t 1.952624 -s 0 -d 7 -p tcp -e 1040 -c 0 -i 31 -a 0 -x {0.0 5.0 18 ------- null}
r -t 1.955664 -s 7 -d 0 -p ack -e 40 -c 0 -i 22 -a 0 -x {5.0 0.0 9 ------- null}
h -t 1.955664 -s 0 -d 7 -p tcp -e 1040 -c 0 -i 32 -a 0 -x {0.0 5.0 19 ------- null}
h -t 1.955664 -s 0 -d 7 -p tcp -e 1040 -c 0 -i 33 -a 0 -x {0.0 5.0 20 ------- null}
r -t 1.958704 -s 7 -d 0 -p ack -e 40 -c 0 -i 23 -a 0 -x {5.0 0.0 10 ------- null}
h -t 1.958704 -s 0 -d 7 -p tcp -e 1040 -c 0 -i 34 -a 0 -x {0.0 5.0 21 ------- null}
h -t 1.958704 -s 0 -d 7 -p tcp -e 1040 -c 0 -i 35 -a 0 -x {0.0 5.0 22 ------- null}
r -t 1.963984 -s 7 -d 0 -p ack -e 40 -c 0 -i 24 -a 0 -x {5.0 0.0 11 ------- null}
h -t 1.963984 -s 0 -d 7 -p tcp -e 1040 -c 0 -i 36 -a 0 -x {0.0 5.0 23 ------- null}
h -t 1.963984 -s 0 -d 7 -p tcp -e 1040 -c 0 -i 37 -a 0 -x {0.0 5.0 24 ------- null}
+ -t 1.964708 -s 5 -d 7 -p ack -e 40 -c 0 -i 25 -a 0 -x {5.0 0.0 12 ------- null}
- -t 1.964708 -s 5 -d 7 -p ack -e 40 -c 0 -i 25 -a 0 -x {5.0 0.0 12 ------- null}
h -t 1.964708 -s 5 -d 7 -p ack -e 40 -c 0 -i 25 -a 0 -x {5.0 0.0 -1 ------- null}
+ -t 1.986544 -s 0 -d 7 -p tcp -e 1040 -c 0 -i 26 -a 0 -x {0.0 5.0 13 ------- null}
- -t 1.986544 -s 0 -d 7 -p tcp -e 1040 -c 0 -i 26 -a 0 -x {0.0 5.0 13 ------- null}
h -t 1.986544 -s 0 -d 7 -p tcp -e 1040 -c 0 -i 26 -a 0 -x {0.0 5.0 -1 ------- null}
+ -t 1.986544 -s 0 -d 7 -p tcp -e 1040 -c 0 -i 27 -a 0 -x {0.0 5.0 14 ------- null}
+ -t 1.989584 -s 0 -d 7 -p tcp -e 1040 -c 0 -i 28 -a 0 -x {0.0 5.0 15 ------- null}
+ -t 1.989584 -s 0 -d 7 -p tcp -e 1040 -c 0 -i 29 -a 0 -x {0.0 5.0 16 ------- null}
+ -t 1.992624 -s 0 -d 7 -p tcp -e 1040 -c 0 -i 30 -a 0 -x {0.0 5.0 17 ------- null}
+ -t 1.992624 -s 0 -d 7 -p tcp -e 1040 -c 0 -i 31 -a 0 -x {0.0 5.0 18 ------- null}
+ -t 1.995664 -s 0 -d 7 -p tcp -e 1040 -c 0 -i 32 -a 0 -x {0.0 5.0 19 ------- null}
+ -t 1.995664 -s 0 -d 7 -p tcp -e 1040 -c 0 -i 33 -a 0 -x {0.0 5.0 20 ------- null}
+ -t 1.998704 -s 0 -d 7 -p tcp -e 1040 -c 0 -i 34 -a 0 -x {0.0 5.0 21 ------- null}
+ -t 1.998704 -s 0 -d 7 -p tcp -e 1040 -c 0 -i 35 -a 0 -x {0.0 5.0 22 ------- null}
+ -t 2.003984 -s 0 -d 7 -p tcp -e 1040 -c 0 -i 36 -a 0 -x {0.0 5.0 23 ------- null}
+ -t 2.003984 -s 0 -d 7 -p tcp -e 1040 -c 0 -i 37 -a 0 -x {0.0 5.0 24 ------- null}
r -t 2.007272 -s 7 -d 0 -p ack -e 40 -c 0 -i 25 -a 0 -x {5.0 0.0 12 ------- null}
h -t 2.007272 -s 0 -d 7 -p tcp -e 1040 -c 0 -i 38 -a 0 -x {0.0 5.0 25 ------- null}
h -t 2.007272 -s 0 -d 7 -p tcp -e 1040 -c 0 -i 39 -a 0 -x {0.0 5.0 26 ------- null}
- -t 2.029184 -s 0 -d 7 -p tcp -e 1040 -c 0 -i 27 -a 0 -x {0.0 5.0 14 ------- null}
h -t 2.029184 -s 0 -d 7 -p tcp -e 1040 -c 0 -i 27 -a 0 -x {0.0 5.0 -1 ------- null}
+ -t 2.047272 -s 0 -d 7 -p tcp -e 1040 -c 0 -i 38 -a 0 -x {0.0 5.0 25 ------- null}
+ -t 2.047272 -s 0 -d 7 -p tcp -e 1040 -c 0 -i 39 -a 0 -x {0.0 5.0 26 ------- null}
r -t 2.068708 -s 7 -d 5 -p tcp -e 1040 -c 0 -i 26 -a 0 -x {0.0 5.0 13 ------- null}
h -t 2.068708 -s 5 -d 7 -p ack -e 40 -c 0 -i 40 -a 0 -x {5.0 0.0 13 ------- null}
- -t 2.071824 -s 0 -d 7 -p tcp -e 1040 -c 0 -i 28 -a 0 -x {0.0 5.0 15 ------- null}
h -t 2.071824 -s 0 -d 7 -p tcp -e 1040 -c 0 -i 28 -a 0 -x {0.0 5.0 -1 ------- null}
+ -t 2.108708 -s 5 -d 7 -p ack -e 40 -c 0 -i 40 -a 0 -x {5.0 0.0 13 ------- null}
- -t 2.108708 -s 5 -d 7 -p ack -e 40 -c 0 -i 40 -a 0 -x {5.0 0.0 13 ------- null}
h -t 2.108708 -s 5 -d 7 -p ack -e 40 -c 0 -i 40 -a 0 -x {5.0 0.0 -1 ------- null}
r -t 2.111348 -s 7 -d 5 -p tcp -e 1040 -c 0 -i 27 -a 0 -x {0.0 5.0 14 ------- null}
h -t 2.111348 -s 5 -d 7 -p ack -e 40 -c 0 -i 41 -a 0 -x {5.0 0.0 14 ------- null}
- -t 2.114464 -s 0 -d 7 -p tcp -e 1040 -c 0 -i 29 -a 0 -x {0.0 5.0 16 ------- null}
h -t 2.114464 -s 0 -d 7 -p tcp -e 1040 -c 0 -i 29 -a 0 -x {0.0 5.0 -1 ------- null}
+ -t 2.151348 -s 5 -d 7 -p ack -e 40 -c 0 -i 41 -a 0 -x {5.0 0.0 14 ------- null}
r -t 2.153988 -s 7 -d 5 -p tcp -e 1040 -c 0 -i 28 -a 0 -x {0.0 5.0 15 ------- null}
h -t 2.153988 -s 5 -d 7 -p ack -e 40 -c 0 -i 42 -a 0 -x {5.0 0.0 15 ------- null}
- -t 2.157752 -s 0 -d 7 -p tcp -e 1040 -c 0 -i 30 -a 0 -x {0.0 5.0 17 ------- null}
h -t 2.157752 -s 0 -d 7 -p tcp -e 1040 -c 0 -i 30 -a 0 -x {0.0 5.0 -1 ------- null}
+ -t 2.193988 -s 5 -d 7 -p ack -e 40 -c 0 -i 42 -a 0 -x {5.0 0.0 15 ------- null}
r -t 2.197276 -s 7 -d 5 -p tcp -e 1040 -c 0 -i 29 -a 0 -x {0.0 5.0 16 ------- null}
h -t 2.197276 -s 5 -d 7 -p ack -e 40 -c 0 -i 43 -a 0 -x {5.0 0.0 16 ------- null}
- -t 2.2036 -s 0 -d 7 -p tcp -e 1040 -c 0 -i 31 -a 0 -x {0.0 5.0 18 ------- null}
h -t 2.2036 -s 0 -d 7 -p tcp -e 1040 -c 0 -i 31 -a 0 -x {0.0 5.0 -1 ------- null}
- -t 2.210492 -s 5 -d 7 -p ack -e 40 -c 0 -i 41 -a 0 -x {5.0 0.0 14 ------- null}
h -t 2.210492 -s 5 -d 7 -p ack -e 40 -c 0 -i 41 -a 0 -x {5.0 0.0 -1 ------- null}
- -t 2.21418 -s 5 -d 7 -p ack -e 40 -c 0 -i 42 -a 0 -x {5.0 0.0 15 ------- null}
h -t 2.21418 -s 5 -d 7 -p ack -e 40 -c 0 -i 42 -a 0 -x {5.0 0.0 -1 ------- null}
+ -t 2.237276 -s 5 -d 7 -p ack -e 40 -c 0 -i 43 -a 0 -x {5.0 0.0 16 ------- null}
- -t 2.237276 -s 5 -d 7 -p ack -e 40 -c 0 -i 43 -a 0 -x {5.0 0.0 16 ------- null}
h -t 2.237276 -s 5 -d 7 -p ack -e 40 -c 0 -i 43 -a 0 -x {5.0 0.0 -1 ------- null}
r -t 2.243124 -s 7 -d 5 -p tcp -e 1040 -c 0 -i 30 -a 0 -x {0.0 5.0 17 ------- null}
h -t 2.243124 -s 5 -d 7 -p ack -e 40 -c 0 -i 44 -a 0 -x {5.0 0.0 17 ------- null}
r -t 2.250016 -s 7 -d 0 -p ack -e 40 -c 0 -i 40 -a 0 -x {5.0 0.0 13 ------- null}
h -t 2.250016 -s 0 -d 7 -p tcp -e 1040 -c 0 -i 45 -a 0 -x {0.0 5.0 27 ------- null}
h -t 2.250016 -s 0 -d 7 -p tcp -e 1040 -c 0 -i 46 -a 0 -x {0.0 5.0 28 ------- null}
r -t 2.253704 -s 7 -d 0 -p ack -e 40 -c 0 -i 41 -a 0 -x {5.0 0.0 14 ------- null}
h -t 2.253704 -s 0 -d 7 -p tcp -e 1040 -c 0 -i 47 -a 0 -x {0.0 5.0 29 ------- null}
h -t 2.253704 -s 0 -d 7 -p tcp -e 1040 -c 0 -i 48 -a 0 -x {0.0 5.0 30 ------- null}
r -t 2.259952 -s 7 -d 0 -p ack -e 40 -c 0 -i 42 -a 0 -x {5.0 0.0 15 ------- null}
h -t 2.259952 -s 0 -d 7 -p tcp -e 1040 -c 0 -i 49 -a 0 -x {0.0 5.0 31 ------- null}
h -t 2.259952 -s 0 -d 7 -p tcp -e 1040 -c 0 -i 50 -a 0 -x {0.0 5.0 32 ------- null}
r -t 2.27984 -s 7 -d 0 -p ack -e 40 -c 0 -i 43 -a 0 -x {5.0 0.0 16 ------- null}
h -t 2.27984 -s 0 -d 7 -p tcp -e 1040 -c 0 -i 51 -a 0 -x {0.0 5.0 33 ------- null}
h -t 2.27984 -s 0 -d 7 -p tcp -e 1040 -c 0 -i 52 -a 0 -x {0.0 5.0 34 ------- null}
+ -t 2.283124 -s 5 -d 7 -p ack -e 40 -c 0 -i 44 -a 0 -x {5.0 0.0 17 ------- null}
- -t 2.283124 -s 5 -d 7 -p ack -e 40 -c 0 -i 44 -a 0 -x {5.0 0.0 17 ------- null}
h -t 2.283124 -s 5 -d 7 -p ack -e 40 -c 0 -i 44 -a 0 -x {5.0 0.0 -1 ------- null}
+ -t 2.290016 -s 0 -d 7 -p tcp -e 1040 -c 0 -i 45 -a 0 -x {0.0 5.0 27 ------- null}
+ -t 2.290016 -s 0 -d 7 -p tcp -e 1040 -c 0 -i 46 -a 0 -x {0.0 5.0 28 ------- null}
- -t 2.290744 -s 0 -d 7 -p tcp -e 1040 -c 0 -i 32 -a 0 -x {0.0 5.0 19 ------- null}
h -t 2.290744 -s 0 -d 7 -p tcp -e 1040 -c 0 -i 32 -a 0 -x {0.0 5.0 -1 ------- null}
+ -t 2.293704 -s 0 -d 7 -p tcp -e 1040 -c 0 -i 47 -a 0 -x {0.0 5.0 29 ------- null}
+ -t 2.293704 -s 0 -d 7 -p tcp -e 1040 -c 0 -i 48 -a 0 -x {0.0 5.0 30 ------- null}
+ -t 2.299952 -s 0 -d 7 -p tcp -e 1040 -c 0 -i 49 -a 0 -x {0.0 5.0 31 ------- null}
+ -t 2.299952 -s 0 -d 7 -p tcp -e 1040 -c 0 -i 50 -a 0 -x {0.0 5.0 32 ------- null}
+ -t 2.31984 -s 0 -d 7 -p tcp -e 1040 -c 0 -i 51 -a 0 -x {0.0 5.0 33 ------- null}
+ -t 2.31984 -s 0 -d 7 -p tcp -e 1040 -c 0 -i 52 -a 0 -x {0.0 5.0 34 ------- null}
r -t 2.330268 -s 7 -d 5 -p tcp -e 1040 -c 0 -i 31 -a 0 -x {0.0 5.0 18 ------- null}
h -t 2.330268 -s 5 -d 7 -p ack -e 40 -c 0 -i 53 -a 0 -x {5.0 0.0 18 ------- null}
r -t 2.33716 -s 7 -d 0 -p ack -e 40 -c 0 -i 44 -a 0 -x {5.0 0.0 17 ------- null}
h -t 2.33716 -s 0 -d 7 -p tcp -e 1040 -c 0 -i 54 -a 0 -x {0.0 5.0 35 ------- null}
h -t 2.33716 -s 0 -d 7 -p tcp -e 1040 -c 0 -i 55 -a 0 -x {0.0 5.0 36 ------- null}
- -t 2.342352 -s 0 -d 7 -p tcp -e 1040 -c 0 -i 33 -a 0 -x {0.0 5.0 20 ------- null}
h -t 2.342352 -s 0 -d 7 -p tcp -e 1040 -c 0 -i 33 -a 0 -x {0.0 5.0 -1 ------- null}
+ -t 2.370268 -s 5 -d 7 -p ack -e 40 -c 0 -i 53 -a 0 -x {5.0 0.0 18 ------- null}
- -t 2.370268 -s 5 -d 7 -p ack -e 40 -c 0 -i 53 -a 0 -x {5.0 0.0 18 ------- null}
h -t 2.370268 -s 5 -d 7 -p ack -e 40 -c 0 -i 53 -a 0 -x {5.0 0.0 -1 ------- null}
+ -t 2.37716 -s 0 -d 7 -p tcp -e 1040 -c 0 -i 54 -a 0 -x {0.0 5.0 35 ------- null}
+ -t 2.37716 -s 0 -d 7 -p tcp -e 1040 -c 0 -i 55 -a 0 -x {0.0 5.0 36 ------- null}
r -t 2.381876 -s 7 -d 5 -p tcp -e 1040 -c 0 -i 32 -a 0 -x {0.0 5.0 19 ------- null}
h -t 2.381876 -s 5 -d 7 -p ack -e 40 -c 0 -i 56 -a 0 -x {5.0 0.0 19 ------- null}
- -t 2.384992 -s 0 -d 7 -p tcp -e 1040 -c 0 -i 34 -a 0 -x {0.0 5.0 21 ------- null}
h -t 2.384992 -s 0 -d 7 -p tcp -e 1040 -c 0 -i 34 -a 0 -x {0.0 5.0 -1 ------- null}
+ -t 2.421876 -s 5 -d 7 -p ack -e 40 -c 0 -i 56 -a 0 -x {5.0 0.0 19 ------- null}
- -t 2.421876 -s 5 -d 7 -p ack -e 40 -c 0 -i 56 -a 0 -x {5.0 0.0 19 ------- null}
h -t 2.421876 -s 5 -d 7 -p ack -e 40 -c 0 -i 56 -a 0 -x {5.0 0.0 -1 ------- null}
r -t 2.424516 -s 7 -d 5 -p tcp -e 1040 -c 0 -i 33 -a 0 -x {0.0 5.0 20 ------- null}
h -t 2.424516 -s 5 -d 7 -p ack -e 40 -c 0 -i 57 -a 0 -x {5.0 0.0 20 ------- null}
r -t 2.433968 -s 7 -d 0 -p ack -e 40 -c 0 -i 53 -a 0 -x {5.0 0.0 18 ------- null}
h -t 2.433968 -s 0 -d 7 -p tcp -e 1040 -c 0 -i 58 -a 0 -x {0.0 5.0 37 ------- null}
h -t 2.433968 -s 0 -d 7 -p tcp -e 1040 -c 0 -i 59 -a 0 -x {0.0 5.0 38 ------- null}
- -t 2.43916 -s 0 -d 7 -p tcp -e 1040 -c 0 -i 35 -a 0 -x {0.0 5.0 22 ------- null}
h -t 2.43916 -s 0 -d 7 -p tcp -e 1040 -c 0 -i 35 -a 0 -x {0.0 5.0 -1 ------- null}
+ -t 2.464516 -s 5 -d 7 -p ack -e 40 -c 0 -i 57 -a 0 -x {5.0 0.0 20 ------- null}
+ -t 2.473968 -s 0 -d 7 -p tcp -e 1040 -c 0 -i 58 -a 0 -x {0.0 5.0 37 ------- null}
+ -t 2.473968 -s 0 -d 7 -p tcp -e 1040 -c 0 -i 59 -a 0 -x {0.0 5.0 38 ------- null}
r -t 2.478684 -s 7 -d 5 -p tcp -e 1040 -c 0 -i 34 -a 0 -x {0.0 5.0 21 ------- null}
h -t 2.478684 -s 5 -d 7 -p ack -e 40 -c 0 -i 60 -a 0 -x {5.0 0.0 21 ------- null}
- -t 2.485648 -s 0 -d 7 -p tcp -e 1040 -c 0 -i 36 -a 0 -x {0.0 5.0 23 ------- null}
h -t 2.485648 -s 0 -d 7 -p tcp -e 1040 -c 0 -i 36 -a 0 -x {0.0 5.0 -1 ------- null}
- -t 2.489332 -s 5 -d 7 -p ack -e 40 -c 0 -i 57 -a 0 -x {5.0 0.0 20 ------- null}
h -t 2.489332 -s 5 -d 7 -p ack -e 40 -c 0 -i 57 -a 0 -x {5.0 0.0 -1 ------- null}
+ -t 2.518684 -s 5 -d 7 -p ack -e 40 -c 0 -i 60 -a 0 -x {5.0 0.0 21 ------- null}
- -t 2.518684 -s 5 -d 7 -p ack -e 40 -c 0 -i 60 -a 0 -x {5.0 0.0 21 ------- null}
h -t 2.518684 -s 5 -d 7 -p ack -e 40 -c 0 -i 60 -a 0 -x {5.0 0.0 -1 ------- null}
r -t 2.525172 -s 7 -d 5 -p tcp -e 1040 -c 0 -i 35 -a 0 -x {0.0 5.0 22 ------- null}
h -t 2.525172 -s 5 -d 7 -p ack -e 40 -c 0 -i 61 -a 0 -x {5.0 0.0 22 ------- null}
r -t 2.528856 -s 7 -d 0 -p ack -e 40 -c 0 -i 56 -a 0 -x {5.0 0.0 19 ------- null}
h -t 2.528856 -s 0 -d 7 -p tcp -e 1040 -c 0 -i 62 -a 0 -x {0.0 5.0 39 ------- null}
r -t 2.540864 -s 7 -d 0 -p ack -e 40 -c 0 -i 57 -a 0 -x {5.0 0.0 20 ------- null}
h -t 2.540864 -s 0 -d 7 -p tcp -e 1040 -c 0 -i 63 -a 0 -x {0.0 5.0 40 ------- null}
- -t 2.553744 -s 0 -d 7 -p tcp -e 1040 -c 0 -i 37 -a 0 -x {0.0 5.0 24 ------- null}
h -t 2.553744 -s 0 -d 7 -p tcp -e 1040 -c 0 -i 37 -a 0 -x {0.0 5.0 -1 ------- null}
+ -t 2.565172 -s 5 -d 7 -p ack -e 40 -c 0 -i 61 -a 0 -x {5.0 0.0 22 ------- null}
+ -t 2.568856 -s 0 -d 7 -p tcp -e 1040 -c 0 -i 62 -a 0 -x {0.0 5.0 39 ------- null}
+ -t 2.580864 -s 0 -d 7 -p tcp -e 1040 -c 0 -i 63 -a 0 -x {0.0 5.0 40 ------- null}
r -t 2.593268 -s 7 -d 5 -p tcp -e 1040 -c 0 -i 36 -a 0 -x {0.0 5.0 23 ------- null}
h -t 2.593268 -s 5 -d 7 -p ack -e 40 -c 0 -i 64 -a 0 -x {5.0 0.0 23 ------- null}
- -t 2.61112 -s 0 -d 7 -p tcp -e 1040 -c 0 -i 38 -a 0 -x {0.0 5.0 25 ------- null}
h -t 2.61112 -s 0 -d 7 -p tcp -e 1040 -c 0 -i 38 -a 0 -x {0.0 5.0 -1 ------- null}
- -t 2.623132 -s 5 -d 7 -p ack -e 40 -c 0 -i 61 -a 0 -x {5.0 0.0 22 ------- null}
h -t 2.623132 -s 5 -d 7 -p ack -e 40 -c 0 -i 61 -a 0 -x {5.0 0.0 -1 ------- null}
+ -t 2.633268 -s 5 -d 7 -p ack -e 40 -c 0 -i 64 -a 0 -x {5.0 0.0 23 ------- null}
- -t 2.633268 -s 5 -d 7 -p ack -e 40 -c 0 -i 64 -a 0 -x {5.0 0.0 23 ------- null}
h -t 2.633268 -s 5 -d 7 -p ack -e 40 -c 0 -i 64 -a 0 -x {5.0 0.0 -1 ------- null}
r -t 2.650644 -s 7 -d 5 -p tcp -e 1040 -c 0 -i 37 -a 0 -x {0.0 5.0 24 ------- null}
h -t 2.650644 -s 5 -d 7 -p ack -e 40 -c 0 -i 65 -a 0 -x {5.0 0.0 24 ------- null}
r -t 2.662656 -s 7 -d 0 -p ack -e 40 -c 0 -i 60 -a 0 -x {5.0 0.0 21 ------- null}
h -t 2.662656 -s 0 -d 7 -p tcp -e 1040 -c 0 -i 66 -a 0 -x {0.0 5.0 41 ------- null}
r -t 2.668904 -s 7 -d 0 -p ack -e 40 -c 0 -i 61 -a 0 -x {5.0 0.0 22 ------- null}
h -t 2.668904 -s 0 -d 7 -p tcp -e 1040 -c 0 -i 67 -a 0 -x {0.0 5.0 42 ------- null}
r -t 2.675832 -s 7 -d 0 -p ack -e 40 -c 0 -i 64 -a 0 -x {5.0 0.0 23 ------- null}
h -t 2.675832 -s 0 -d 7 -p tcp -e 1040 -c 0 -i 68 -a 0 -x {0.0 5.0 43 ------- null}
- -t 2.681776 -s 0 -d 7 -p tcp -e 1040 -c 0 -i 39 -a 0 -x {0.0 5.0 26 ------- null}
h -t 2.681776 -s 0 -d 7 -p tcp -e 1040 -c 0 -i 39 -a 0 -x {0.0 5.0 -1 ------- null}
+ -t 2.690644 -s 5 -d 7 -p ack -e 40 -c 0 -i 65 -a 0 -x {5.0 0.0 24 ------- null}
- -t 2.690644 -s 5 -d 7 -p ack -e 40 -c 0 -i 65 -a 0 -x {5.0 0.0 24 ------- null}
h -t 2.690644 -s 5 -d 7 -p ack -e 40 -c 0 -i 65 -a 0 -x {5.0 0.0 -1 ------- null}
+ -t 2.702656 -s 0 -d 7 -p tcp -e 1040 -c 0 -i 66 -a 0 -x {0.0 5.0 41 ------- null}
+ -t 2.708904 -s 0 -d 7 -p tcp -e 1040 -c 0 -i 67 -a 0 -x {0.0 5.0 42 ------- null}
+ -t 2.715832 -s 0 -d 7 -p tcp -e 1040 -c 0 -i 68 -a 0 -x {0.0 5.0 43 ------- null}
r -t 2.7213 -s 7 -d 5 -p tcp -e 1040 -c 0 -i 38 -a 0 -x {0.0 5.0 25 ------- null}
h -t 2.7213 -s 5 -d 7 -p ack -e 40 -c 0 -i 69 -a 0 -x {5.0 0.0 25 ------- null}
- -t 2.724416 -s 0 -d 7 -p tcp -e 1040 -c 0 -i 45 -a 0 -x {0.0 5.0 27 ------- null}
h -t 2.724416 -s 0 -d 7 -p tcp -e 1040 -c 0 -i 45 -a 0 -x {0.0 5.0 -1 ------- null}
+ -t 2.7613 -s 5 -d 7 -p ack -e 40 -c 0 -i 69 -a 0 -x {5.0 0.0 25 ------- null}
r -t 2.76394 -s 7 -d 5 -p tcp -e 1040 -c 0 -i 39 -a 0 -x {0.0 5.0 26 ------- null}
h -t 2.76394 -s 5 -d 7 -p ack -e 40 -c 0 -i 70 -a 0 -x {5.0 0.0 26 ------- null}
- -t 2.770904 -s 0 -d 7 -p tcp -e 1040 -c 0 -i 46 -a 0 -x {0.0 5.0 28 ------- null}
h -t 2.770904 -s 0 -d 7 -p tcp -e 1040 -c 0 -i 46 -a 0 -x {0.0 5.0 -1 ------- null}
+ -t 2.80394 -s 5 -d 7 -p ack -e 40 -c 0 -i 70 -a 0 -x {5.0 0.0 26 ------- null}
r -t 2.810428 -s 7 -d 5 -p tcp -e 1040 -c 0 -i 45 -a 0 -x {0.0 5.0 27 ------- null}
h -t 2.810428 -s 5 -d 7 -p ack -e 40 -c 0 -i 71 -a 0 -x {5.0 0.0 27 ------- null}
- -t 2.814192 -s 0 -d 7 -p tcp -e 1040 -c 0 -i 47 -a 0 -x {0.0 5.0 29 ------- null}
h -t 2.814192 -s 0 -d 7 -p tcp -e 1040 -c 0 -i 47 -a 0 -x {0.0 5.0 -1 ------- null}
+ -t 2.850428 -s 5 -d 7 -p ack -e 40 -c 0 -i 71 -a 0 -x {5.0 0.0 27 ------- null}
r -t 2.853716 -s 7 -d 5 -p tcp -e 1040 -c 0 -i 46 -a 0 -x {0.0 5.0 28 ------- null}
h -t 2.853716 -s 5 -d 7 -p ack -e 40 -c 0 -i 72 -a 0 -x {5.0 0.0 28 ------- null}
- -t 2.86004 -s 0 -d 7 -p tcp -e 1040 -c 0 -i 48 -a 0 -x {0.0 5.0 30 ------- null}
h -t 2.86004 -s 0 -d 7 -p tcp -e 1040 -c 0 -i 48 -a 0 -x {0.0 5.0 -1 ------- null}
+ -t 2.893716 -s 5 -d 7 -p ack -e 40 -c 0 -i 72 -a 0 -x {5.0 0.0 28 ------- null}
r -t 2.899564 -s 7 -d 5 -p tcp -e 1040 -c 0 -i 47 -a 0 -x {0.0 5.0 29 ------- null}
h -t 2.899564 -s 5 -d 7 -p ack -e 40 -c 0 -i 73 -a 0 -x {5.0 0.0 29 ------- null}
- -t 2.90332800000001 -s 0 -d 7 -p tcp -e 1040 -c 0 -i 49 -a 0 -x {0.0 5.0 31 ------- null}
h -t 2.90332800000001 -s 0 -d 7 -p tcp -e 1040 -c 0 -i 49 -a 0 -x {0.0 5.0 -1 ------- null}
+ -t 2.939564 -s 5 -d 7 -p ack -e 40 -c 0 -i 73 -a 0 -x {5.0 0.0 29 ------- null}
r -t 2.94285200000001 -s 7 -d 5 -p tcp -e 1040 -c 0 -i 48 -a 0 -x {0.0 5.0 30 ------- null}
h -t 2.94285200000001 -s 5 -d 7 -p ack -e 40 -c 0 -i 74 -a 0 -x {5.0 0.0 30 ------- null}
- -t 2.94596800000001 -s 0 -d 7 -p tcp -e 1040 -c 0 -i 50 -a 0 -x {0.0 5.0 32 ------- null}
h -t 2.94596800000001 -s 0 -d 7 -p tcp -e 1040 -c 0 -i 50 -a 0 -x {0.0 5.0 -1 ------- null}
+ -t 2.98285200000001 -s 5 -d 7 -p ack -e 40 -c 0 -i 74 -a 0 -x {5.0 0.0 30 ------- null}
r -t 2.98549200000001 -s 7 -d 5 -p tcp -e 1040 -c 0 -i 49 -a 0 -x {0.0 5.0 31 ------- null}
h -t 2.98549200000001 -s 5 -d 7 -p ack -e 40 -c 0 -i 75 -a 0 -x {5.0 0.0 31 ------- null}
- -t 2.99181600000001 -s 0 -d 7 -p tcp -e 1040 -c 0 -i 51 -a 0 -x {0.0 5.0 33 ------- null}
h -t 2.99181600000001 -s 0 -d 7 -p tcp -e 1040 -c 0 -i 51 -a 0 -x {0.0 5.0 -1 ------- null}
+ -t 3.02549200000001 -s 5 -d 7 -p ack -e 40 -c 0 -i 75 -a 0 -x {5.0 0.0 31 ------- null}
r -t 3.03134000000001 -s 7 -d 5 -p tcp -e 1040 -c 0 -i 50 -a 0 -x {0.0 5.0 32 ------- null}
h -t 3.03134000000001 -s 5 -d 7 -p ack -e 40 -c 0 -i 76 -a 0 -x {5.0 0.0 32 ------- null}
- -t 3.03445600000001 -s 0 -d 7 -p tcp -e 1040 -c 0 -i 52 -a 0 -x {0.0 5.0 34 ------- null}
h -t 3.03445600000001 -s 0 -d 7 -p tcp -e 1040 -c 0 -i 52 -a 0 -x {0.0 5.0 -1 ------- null}
+ -t 3.07134000000001 -s 5 -d 7 -p ack -e 40 -c 0 -i 76 -a 0 -x {5.0 0.0 32 ------- null}
r -t 3.07398000000001 -s 7 -d 5 -p tcp -e 1040 -c 0 -i 51 -a 0 -x {0.0 5.0 33 ------- null}
h -t 3.07398000000001 -s 5 -d 7 -p ack -e 40 -c 0 -i 77 -a 0 -x {5.0 0.0 33 ------- null}
- -t 3.07774400000001 -s 0 -d 7 -p tcp -e 1040 -c 0 -i 54 -a 0 -x {0.0 5.0 35 ------- null}
h -t 3.07774400000001 -s 0 -d 7 -p tcp -e 1040 -c 0 -i 54 -a 0 -x {0.0 5.0 -1 ------- null}
+ -t 3.11398000000001 -s 5 -d 7 -p ack -e 40 -c 0 -i 77 -a 0 -x {5.0 0.0 33 ------- null}
r -t 3.11726800000001 -s 7 -d 5 -p tcp -e 1040 -c 0 -i 52 -a 0 -x {0.0 5.0 34 ------- null}
h -t 3.11726800000001 -s 5 -d 7 -p ack -e 40 -c 0 -i 78 -a 0 -x {5.0 0.0 34 ------- null}
- -t 3.12038400000001 -s 0 -d 7 -p tcp -e 1040 -c 0 -i 55 -a 0 -x {0.0 5.0 36 ------- null}
h -t 3.12038400000001 -s 0 -d 7 -p tcp -e 1040 -c 0 -i 55 -a 0 -x {0.0 5.0 -1 ------- null}
+ -t 3.15726800000001 -s 5 -d 7 -p ack -e 40 -c 0 -i 78 -a 0 -x {5.0 0.0 34 ------- null}
r -t 3.15990800000001 -s 7 -d 5 -p tcp -e 1040 -c 0 -i 54 -a 0 -x {0.0 5.0 35 ------- null}
h -t 3.15990800000001 -s 5 -d 7 -p ack -e 40 -c 0 -i 79 -a 0 -x {5.0 0.0 35 ------- null}
- -t 3.16302400000001 -s 0 -d 7 -p tcp -e 1040 -c 0 -i 58 -a 0 -x {0.0 5.0 37 ------- null}
h -t 3.16302400000001 -s 0 -d 7 -p tcp -e 1040 -c 0 -i 58 -a 0 -x {0.0 5.0 -1 ------- null}
+ -t 3.19990800000001 -s 5 -d 7 -p ack -e 40 -c 0 -i 79 -a 0 -x {5.0 0.0 35 ------- null}
r -t 3.20254800000001 -s 7 -d 5 -p tcp -e 1040 -c 0 -i 55 -a 0 -x {0.0 5.0 36 ------- null}
h -t 3.20254800000001 -s 5 -d 7 -p ack -e 40 -c 0 -i 80 -a 0 -x {5.0 0.0 36 ------- null}
- -t 3.20566400000001 -s 0 -d 7 -p tcp -e 1040 -c 0 -i 59 -a 0 -x {0.0 5.0 38 ------- null}
h -t 3.20566400000001 -s 0 -d 7 -p tcp -e 1040 -c 0 -i 59 -a 0 -x {0.0 5.0 -1 ------- null}
+ -t 3.24254800000001 -s 5 -d 7 -p ack -e 40 -c 0 -i 80 -a 0 -x {5.0 0.0 36 ------- null}