h 1 0 7 tcp 40 ------- 0 0.0 5.0 0 0
+ 1.04 0 7 tcp 40 ------- 0 0.0 5.0 0 0
- 1.04 0 7 tcp 40 ------- 0 0.0 5.0 0 0
r 1.082564 7 5 tcp 40 ------- 0 0.0 5.0 0 0
h 1.082564 5 7 ack 40 ------- 0 5.0 0.0 0 1
+ 1.122564 5 7 ack 40 ------- 0 5.0 0.0 0 1
- 1.122564 5 7 ack 40 ------- 0 5.0 0.0 0 1
r 1.165128 7 0 ack 40 ------- 0 5.0 0.0 0 1
h 1.165128 0 7 tcp 1040 ------- 0 0.0 5.0 1 2
h 1.165128 0 7 tcp 1040 ------- 0 0.0 5.0 2 3
+ 1.205128 0 7 tcp 1040 ------- 0 0.0 5.0 1 2
- 1.205128 0 7 tcp 1040 ------- 0 0.0 5.0 1 2
+ 1.205128 0 7 tcp 1040 ------- 0 0.0 5.0 2 3
- 1.247768 0 7 tcp 1040 ------- 0 0.0 5.0 2 3
r 1.287292 7 5 tcp 1040 ------- 0 0.0 5.0 1 2
h 1.287292 5 7 ack 40 ------- 0 5.0 0.0 1 4
+ 1.327292 5 7 ack 40 ------- 0 5.0 0.0 1 4
- 1.327292 5 7 ack 40 ------- 0 5.0 0.0 1 4
r 1.329932 7 5 tcp 1040 ------- 0 0.0 5.0 2 3
h 1.329932 5 7 ack 40 ------- 0 5.0 0.0 2 5
r 1.369856 7 0 ack 40 ------- 0 5.0 0.0 1 4
h 1.369856 0 7 tcp 1040 ------- 0 0.0 5.0 3 6
h 1.369856 0 7 tcp 1040 ------- 0 0.0 5.0 4 7
+ 1.369932 5 7 ack 40 ------- 0 5.0 0.0 2 5
- 1.369932 5 7 ack 40 ------- 0 5.0 0.0 2 5
+ 1.409856 0 7 tcp 1040 ------- 0 0.0 5.0 3 6
- 1.409856 0 7 tcp 1040 ------- 0 0.0 5.0 3 6
+ 1.409856 0 7 tcp 1040 ------- 0 0.0 5.0 4 7
r 1.412496 7 0 ack 40 ------- 0 5.0 0.0 2 5
h 1.412496 0 7 tcp 1040 ------- 0 0.0 5.0 5 8
h 1.412496 0 7 tcp 1040 ------- 0 0.0 5.0 6 9
+ 1.452496 0 7 tcp 1040 ------- 0 0.0 5.0 5 8
+ 1.452496 0 7 tcp 1040 ------- 0 0.0 5.0 6 9
- 1.452496 0 7 tcp 1040 ------- 0 0.0 5.0 4 7
r 1.49202 7 5 tcp 1040 ------- 0 0.0 5.0 3 6
h 1.49202 5 7 ack 40 ------- 0 5.0 0.0 3 10
- 1.495136 0 7 tcp 1040 ------- 0 0.0 5.0 5 8
+ 1.53202 5 7 ack 40 ------- 0 5.0 0.0 3 10
- 1.53202 5 7 ack 40 ------- 0 5.0 0.0 3 10
r 1.53466 7 5 tcp 1040 ------- 0 0.0 5.0 4 7
h 1.53466 5 7 ack 40 ------- 0 5.0 0.0 4 11
- 1.537776 0 7 tcp 1040 ------- 0 0.0 5.0 6 9
+ 1.57466 5 7 ack 40 ------- 0 5.0 0.0 4 11
- 1.57466 5 7 ack 40 ------- 0 5.0 0.0 4 11
r 1.5773 7 5 tcp 1040 ------- 0 0.0 5.0 5 8
h 1.5773 5 7 ack 40 ------- 0 5.0 0.0 5 12
r 1.580984 7 0 ack 40 ------- 0 5.0 0.0 3 10
h 1.580984 0 7 tcp 1040 ------- 0 0.0 5.0 7 13
h 1.580984 0 7 tcp 1040 ------- 0 0.0 5.0 8 14
+ 1.6173 5 7 ack 40 ------- 0 5.0 0.0 5 12
- 1.6173 5 7 ack 40 ------- 0 5.0 0.0 5 12
+ 1.620984 0 7 tcp 1040 ------- 0 0.0 5.0 7 13
- 1.620984 0 7 tcp 1040 ------- 0 0.0 5.0 7 13
+ 1.620984 0 7 tcp 1040 ------- 0 0.0 5.0 8 14
r 1.623628 7 5 tcp 1040 ------- 0 0.0 5.0 6 9
h 1.623628 5 7 ack 40 ------- 0 5.0 0.0 6 15
r 1.626672 7 0 ack 40 ------- 0 5.0 0.0 4 11
h 1.626672 0 7 tcp 1040 ------- 0 0.0 5.0 9 16
h 1.626672 0 7 tcp 1040 ------- 0 0.0 5.0 10 17
r 1.659864 7 0 ack 40 ------- 0 5.0 0.0 5 12
h 1.659864 0 7 tcp 1040 ------- 0 0.0 5.0 11 18
h 1.659864 0 7 tcp 1040 ------- 0 0.0 5.0 12 19
- 1.663624 0 7 tcp 1040 ------- 0 0.0 5.0 8 14
+ 1.663628 5 7 ack 40 ------- 0 5.0 0.0 6 15
- 1.663628 5 7 ack 40 ------- 0 5.0 0.0 6 15
+ 1.666672 0 7 tcp 1040 ------- 0 0.0 5.0 9 16
+ 1.666672 0 7 tcp 1040 ------- 0 0.0 5.0 10 17
+ 1.699864 0 7 tcp 1040 ------- 0 0.0 5.0 11 18
+ 1.699864 0 7 tcp 1040 ------- 0 0.0 5.0 12 19
r 1.703148 7 5 tcp 1040 ------- 0 0.0 5.0 7 13
h 1.703148 5 7 ack 40 ------- 0 5.0 0.0 7 20
- 1.706912 0 7 tcp 1040 ------- 0 0.0 5.0 9 16
+ 1.743148 5 7 ack 40 ------- 0 5.0 0.0 7 20
r 1.746436 7 5 tcp 1040 ------- 0 0.0 5.0 8 14
h 1.746436 5 7 ack 40 ------- 0 5.0 0.0 8 21
- 1.75276 0 7 tcp 1040 ------- 0 0.0 5.0 10 17
+ 1.786436 5 7 ack 40 ------- 0 5.0 0.0 8 21
r 1.792284 7 5 tcp 1040 ------- 0 0.0 5.0 9 16
h 1.792284 5 7 ack 40 ------- 0 5.0 0.0 9 22
- 1.796048 0 7 tcp 1040 ------- 0 0.0 5.0 11 18
+ 1.832284 5 7 ack 40 ------- 0 5.0 0.0 9 22
r 1.835572 7 5 tcp 1040 ------- 0 0.0 5.0 10 17
h 1.835572 5 7 ack 40 ------- 0 5.0 0.0 10 23
- 1.841896 0 7 tcp 1040 ------- 0 0.0 5.0 12 19
+ 1.875572 5 7 ack 40 ------- 0 5.0 0.0 10 23
r 1.88142 7 5 tcp 1040 ------- 0 0.0 5.0 11 18
h 1.88142 5 7 ack 40 ------- 0 5.0 0.0 11 24
- 1.90702 5 7 ack 40 ------- 0 5.0 0.0 7 20
- 1.91006 5 7 ack 40 ------- 0 5.0 0.0 8 21
- 1.9131 5 7 ack 40 ------- 0 5.0 0.0 9 22
- 1.91614 5 7 ack 40 ------- 0 5.0 0.0 10 23
+ 1.92142 5 7 ack 40 ------- 0 5.0 0.0 11 24
- 1.92142 5 7 ack 40 ------- 0 5.0 0.0 11 24
r 1.924708 7 5 tcp 1040 ------- 0 0.0 5.0 12 19
h 1.924708 5 7 ack 40 ------- 0 5.0 0.0 12 25
r 1.946544 7 0 ack 40 ------- 0 5.0 0.0 6 15
h 1.946544 0 7 tcp 1040 ------- 0 0.0 5.0 13 26
h 1.946544 0 7 tcp 1040 ------- 0 0.0 5.0 14 27
r 1.949584 7 0 ack 40 ------- 0 5.0 0.0 7 20
h 1.949584 0 7 tcp 1040 ------- 0 0.0 5.0 15 28
h 1.949584 0 7 tcp 1040 ------- 0 0.0 5.0 16 29
r 1.952624 7 0 ack 40 ------- 0 5.0 0.0 8 21
h 1.952624 0 7 tcp 1040 ------- 0 0.0 5.0 17 30
h 1.952624 0 7 tcp 1040 ------- 0 0.0 5.0 18 31
r 1.955664 7 0 ack 40 ------- 0 5.0 0.0 9 22
h 1.955664 0 7 tcp 1040 ------- 0 0.0 5.0 19 32
h 1.955664 0 7 tcp 1040 ------- 0 0.0 5.0 20 33
r 1.958704 7 0 ack 40 ------- 0 5.0 0.0 10 23
h 1.958704 0 7 tcp 1040 ------- 0 0.0 5.0 21 34
h 1.958704 0 7 tcp 1040 ------- 0 0.0 5.0 22 35
r 1.963984 7 0 ack 40 ------- 0 5.0 0.0 11 24
h 1.963984 0 7 tcp 1040 ------- 0 0.0 5.0 23 36
h 1.963984 0 7 tcp 1040 ------- 0 0.0 5.0 24 37
+ 1.964708 5 7 ack 40 ------- 0 5.0 0.0 12 25
- 1.964708 5 7 ack 40 ------- 0 5.0 0.0 12 25
+ 1.986544 0 7 tcp 1040 ------- 0 0.0 5.0 13 26
- 1.986544 0 7 tcp 1040 ------- 0 0.0 5.0 13 26
+ 1.986544 0 7 tcp 1040 ------- 0 0.0 5.0 14 27
+ 1.989584 0 7 tcp 1040 ------- 0 0.0 5.0 15 28
+ 1.989584 0 7 tcp 1040 ------- 0 0.0 5.0 16 29
+ 1.992624 0 7 tcp 1040 ------- 0 0.0 5.0 17 30
+ 1.992624 0 7 tcp 1040 ------- 0 0.0 5.0 18 31
+ 1.995664 0 7 tcp 1040 ------- 0 0.0 5.0 19 32
+ 1.995664 0 7 tcp 1040 ------- 0 0.0 5.0 20 33
+ 1.998704 0 7 tcp 1040 ------- 0 0.0 5.0 21 34
+ 1.998704 0 7 tcp 1040 ------- 0 0.0 5.0 22 35
+ 2.003984 0 7 tcp 1040 ------- 0 0.0 5.0 23 36
+ 2.003984 0 7 tcp 1040 ------- 0 0.0 5.0 24 37
r 2.007272 7 0 ack 40 ------- 0 5.0 0.0 12 25
h 2.007272 0 7 tcp 1040 ------- 0 0.0 5.0 25 38
h 2.007272 0 7 tcp 1040 ------- 0 0.0 5.0 26 39
- 2.029184 0 7 tcp 1040 ------- 0 0.0 5.0 14 27
+ 2.047272 0 7 tcp 1040 ------- 0 0.0 5.0 25 38
+ 2.047272 0 7 tcp 1040 ------- 0 0.0 5.0 26 39
r 2.068708 7 5 tcp 1040 ------- 0 0.0 5.0 13 26
h 2.068708 5 7 ack 40 ------- 0 5.0 0.0 13 40
- 2.071824 0 7 tcp 1040 ------- 0 0.0 5.0 15 28
+ 2.108708 5 7 ack 40 ------- 0 5.0 0.0 13 40
- 2.108708 5 7 ack 40 ------- 0 5.0 0.0 13 40
r 2.111348 7 5 tcp 1040 ------- 0 0.0 5.0 14 27
h 2.111348 5 7 ack 40 ------- 0 5.0 0.0 14 41
- 2.114464 0 7 tcp 1040 ------- 0 0.0 5.0 16 29
+ 2.151348 5 7 ack 40 ------- 0 5.0 0.0 14 41
r 2.153988 7 5 tcp 1040 ------- 0 0.0 5.0 15 28
h 2.153988 5 7 ack 40 ------- 0 5.0 0.0 15 42
- 2.157752 0 7 tcp 1040 ------- 0 0.0 5.0 17 30
+ 2.193988 5 7 ack 40 ------- 0 5.0 0.0 15 42
r 2.197276 7 5 tcp 1040 ------- 0 0.0 5.0 16 29
h 2.197276 5 7 ack 40 ------- 0 5.0 0.0 16 43
- 2.2036 0 7 tcp 1040 ------- 0 0.0 5.0 18 31
- 2.210492 5 7 ack 40 ------- 0 5.0 0.0 14 41
- 2.21418 5 7 ack 40 ------- 0 5.0 0.0 15 42
+ 2.237276 5 7 ack 40 ------- 0 5.0 0.0 16 43
- 2.237276 5 7 ack 40 ------- 0 5.0 0.0 16 43
r 2.243124 7 5 tcp 1040 ------- 0 0.0 5.0 17 30
h 2.243124 5 7 ack 40 ------- 0 5.0 0.0 17 44
r 2.250016 7 0 ack 40 ------- 0 5.0 0.0 13 40
h 2.250016 0 7 tcp 1040 ------- 0 0.0 5.0 27 45
h 2.250016 0 7 tcp 1040 ------- 0 0.0 5.0 28 46
r 2.253704 7 0 ack 40 ------- 0 5.0 0.0 14 41
h 2.253704 0 7 tcp 1040 ------- 0 0.0 5.0 29 47
h 2.253704 0 7 tcp 1040 ------- 0 0.0 5.0 30 48
r 2.259952 7 0 ack 40 ------- 0 5.0 0.0 15 42
h 2.259952 0 7 tcp 1040 ------- 0 0.0 5.0 31 49
h 2.259952 0 7 tcp 1040 ------- 0 0.0 5.0 32 50
r 2.27984 7 0 ack 40 ------- 0 5.0 0.0 16 43
h 2.27984 0 7 tcp 1040 ------- 0 0.0 5.0 33 51
h 2.27984 0 7 tcp 1040 ------- 0 0.0 5.0 34 52
+ 2.283124 5 7 ack 40 ------- 0 5.0 0.0 17 44
- 2.283124 5 7 ack 40 ------- 0 5.0 0.0 17 44
+ 2.290016 0 7 tcp 1040 ------- 0 0.0 5.0 27 45
+ 2.290016 0 7 tcp 1040 ------- 0 0.0 5.0 28 46
- 2.290744 0 7 tcp 1040 ------- 0 0.0 5.0 19 32
+ 2.293704 0 7 tcp 1040 ------- 0 0.0 5.0 29 47
+ 2.293704 0 7 tcp 1040 ------- 0 0.0 5.0 30 48
+ 2.299952 0 7 tcp 1040 ------- 0 0.0 5.0 31 49
+ 2.299952 0 7 tcp 1040 ------- 0 0.0 5.0 32 50
+ 2.31984 0 7 tcp 1040 ------- 0 0.0 5.0 33 51
+ 2.31984 0 7 tcp 1040 ------- 0 0.0 5.0 34 52
r 2.330268 7 5 tcp 1040 ------- 0 0.0 5.0 18 31
h 2.330268 5 7 ack 40 ------- 0 5.0 0.0 18 53
r 2.33716 7 0 ack 40 ------- 0 5.0 0.0 17 44
h 2.33716 0 7 tcp 1040 ------- 0 0.0 5.0 35 54
h 2.33716 0 7 tcp 1040 ------- 0 0.0 5.0 36 55
- 2.342352 0 7 tcp 1040 ------- 0 0.0 5.0 20 33
+ 2.370268 5 7 ack 40 ------- 0 5.0 0.0 18 53
- 2.370268 5 7 ack 40 ------- 0 5.0 0.0 18 53
+ 2.37716 0 7 tcp 1040 ------- 0 0.0 5.0 35 54
+ 2.37716 0 7 tcp 1040 ------- 0 0.0 5.0 36 55
r 2.381876 7 5 tcp 1040 ------- 0 0.0 5.0 19 32
h 2.381876 5 7 ack 40 ------- 0 5.0 0.0 19 56
- 2.384992 0 7 tcp 1040 ------- 0 0.0 5.0 21 34
+ 2.421876 5 7 ack 40 ------- 0 5.0 0.0 19 56
- 2.421876 5 7 ack 40 ------- 0 5.0 0.0 19 56
r 2.424516 7 5 tcp 1040 ------- 0 0.0 5.0 20 33
h 2.424516 5 7 ack 40 ------- 0 5.0 0.0 20 57
r 2.433968 7 0 ack 40 ------- 0 5.0 0.0 18 53
h 2.433968 0 7 tcp 1040 ------- 0 0.0 5.0 37 58
h 2.433968 0 7 tcp 1040 ------- 0 0.0 5.0 38 59
- 2.43916 0 7 tcp 1040 ------- 0 0.0 5.0 22 35
+ 2.464516 5 7 ack 40 ------- 0 5.0 0.0 20 57
+ 2.473968 0 7 tcp 1040 ------- 0 0.0 5.0 37 58
+ 2.473968 0 7 tcp 1040 ------- 0 0.0 5.0 38 59
r 2.478684 7 5 tcp 1040 ------- 0 0.0 5.0 21 34
h 2.478684 5 7 ack 40 ------- 0 5.0 0.0 21 60
- 2.485648 0 7 tcp 1040 ------- 0 0.0 5.0 23 36
- 2.489332 5 7 ack 40 ------- 0 5.0 0.0 20 57
+ 2.518684 5 7 ack 40 ------- 0 5.0 0.0 21 60
- 2.518684 5 7 ack 40 ------- 0 5.0 0.0 21 60
r 2.525172 7 5 tcp 1040 ------- 0 0.0 5.0 22 35
h 2.525172 5 7 ack 40 ------- 0 5.0 0.0 22 61
r 2.528856 7 0 ack 40 ------- 0 5.0 0.0 19 56
h 2.528856 0 7 tcp 1040 ------- 0 0.0 5.0 39 62
r 2.540864 7 0 ack 40 ------- 0 5.0 0.0 20 57
h 2.540864 0 7 tcp 1040 ------- 0 0.0 5.0 40 63
- 2.553744 0 7 tcp 1040 ------- 0 0.0 5.0 24 37
+ 2.565172 5 7 ack 40 ------- 0 5.0 0.0 22 61
+ 2.568856 0 7 tcp 1040 ------- 0 0.0 5.0 39 62
+ 2.580864 0 7 tcp 1040 ------- 0 0.0 5.0 40 63
r 2.593268 7 5 tcp 1040 ------- 0 0.0 5.0 23 36
h 2.593268 5 7 ack 40 ------- 0 5.0 0.0 23 64
- 2.61112 0 7 tcp 1040 ------- 0 0.0 5.0 25 38
- 2.623132 5 7 ack 40 ------- 0 5.0 0.0 22 61
+ 2.633268 5 7 ack 40 ------- 0 5.0 0.0 23 64
- 2.633268 5 7 ack 40 ------- 0 5.0 0.0 23 64
r 2.650644 7 5 tcp 1040 ------- 0 0.0 5.0 24 37
h 2.650644 5 7 ack 40 ------- 0 5.0 0.0 24 65
r 2.662656 7 0 ack 40 ------- 0 5.0 0.0 21 60
h 2.662656 0 7 tcp 1040 ------- 0 0.0 5.0 41 66
r 2.668904 7 0 ack 40 ------- 0 5.0 0.0 22 61
h 2.668904 0 7 tcp 1040 ------- 0 0.0 5.0 42 67
r 2.675832 7 0 ack 40 ------- 0 5.0 0.0 23 64
h 2.675832 0 7 tcp 1040 ------- 0 0.0 5.0 43 68
- 2.681776 0 7 tcp 1040 ------- 0 0.0 5.0 26 39
+ 2.690644 5 7 ack 40 ------- 0 5.0 0.0 24 65
- 2.690644 5 7 ack 40 ------- 0 5.0 0.0 24 65
+ 2.702656 0 7 tcp 1040 ------- 0 0.0 5.0 41 66
+ 2.708904 0 7 tcp 1040 ------- 0 0.0 5.0 42 67
+ 2.715832 0 7 tcp 1040 ------- 0 0.0 5.0 43 68
r 2.7213 7 5 tcp 1040 ------- 0 0.0 5.0 25 38
h 2.7213 5 7 ack 40 ------- 0 5.0 0.0 25 69
- 2.724416 0 7 tcp 1040 ------- 0 0.0 5.0 27 45
+ 2.7613 5 7 ack 40 ------- 0 5.0 0.0 25 69
r 2.76394 7 5 tcp 1040 ------- 0 0.0 5.0 26 39
h 2.76394 5 7 ack 40 ------- 0 5.0 0.0 26 70
- 2.770904 0 7 tcp 1040 ------- 0 0.0 5.0 28 46
+ 2.80394 5 7 ack 40 ------- 0 5.0 0.0 26 70
r 2.810428 7 5 tcp 1040 ------- 0 0.0 5.0 27 45
h 2.810428 5 7 ack 40 ------- 0 5.0 0.0 27 71
- 2.814192 0 7 tcp 1040 ------- 0 0.0 5.0 29 47
+ 2.850428 5 7 ack 40 ------- 0 5.0 0.0 27 71
r 2.853716 7 5 tcp 1040 ------- 0 0.0 5.0 28 46
h 2.853716 5 7 ack 40 ------- 0 5.0 0.0 28 72
- 2.86004 0 7 tcp 1040 ------- 0 0.0 5.0 30 48
+ 2.893716 5 7 ack 40 ------- 0 5.0 0.0 28 72
r 2.899564 7 5 tcp 1040 ------- 0 0.0 5.0 29 47
h 2.899564 5 7 ack 40 ------- 0 5.0 0.0 29 73
- 2.903328 0 7 tcp 1040 ------- 0 0.0 5.0 31 49
+ 2.939564 5 7 ack 40 ------- 0 5.0 0.0 29 73
r 2.942852 7 5 tcp 1040 ------- 0 0.0 5.0 30 48
h 2.942852 5 7 ack 40 ------- 0 5.0 0.0 30 74
- 2.945968 0 7 tcp 1040 ------- 0 0.0 5.0 32 50
+ 2.982852 5 7 ack 40 ------- 0 5.0 0.0 30 74
r 2.985492 7 5 tcp 1040 ------- 0 0.0 5.0 31 49
h 2.985492 5 7 ack 40 ------- 0 5.0 0.0 31 75
- 2.991816 0 7 tcp 1040 ------- 0 0.0 5.0 33 51
+ 3.025492 5 7 ack 40 ------- 0 5.0 0.0 31 75
r 3.03134 7 5 tcp 1040 ------- 0 0.0 5.0 32 50
h 3.03134 5 7 ack 40 ------- 0 5.0 0.0 32 76
- 3.034456 0 7 tcp 1040 ------- 0 0.0 5.0 34 52
+ 3.07134 5 7 ack 40 ------- 0 5.0 0.0 32 76
r 3.07398 7 5 tcp 1040 ------- 0 0.0 5.0 33 51
h 3.07398 5 7 ack 40 ------- 0 5.0 0.0 33 77
- 3.077744 0 7 tcp 1040 ------- 0 0.0 5.0 35 54
+ 3.11398 5 7 ack 40 ------- 0 5.0 0.0 33 77
r 3.117268 7 5 tcp 1040 ------- 0 0.0 5.0 34 52
h 3.117268 5 7 ack 40 ------- 0 5.0 0.0 34 78
- 3.120384 0 7 tcp 1040 ------- 0 0.0 5.0 36 55
+ 3.157268 5 7 ack 40 ------- 0 5.0 0.0 34 78
r 3.159908 7 5 tcp 1040 ------- 0 0.0 5.0 35 54
h 3.159908 5 7 ack 40 ------- 0 5.0 0.0 35 79
- 3.163024 0 7 tcp 1040 ------- 0 0.0 5.0 37 58
+ 3.199908 5 7 ack 40 ------- 0 5.0 0.0 35 79
r 3.202548 7 5 tcp 1040 ------- 0 0.0 5.0 36 55
h 3.202548 5 7 ack 40 ------- 0 5.0 0.0 36 80
- 3.205664 0 7 tcp 1040 ------- 0 0.0 5.0 38 59
+ 3.242548 5 7 ack 40 ------- 0 5.0 0.0 36 80
r 3.245188 7 5 tcp 1040 ------- 0 0.0 5.0 37 58
h 3.245188 5 7 ack 40 ------- 0 5.0 0.0 37 81
- 3.248304 0 7 tcp 1040 ------- 0 0.0 5.0 39 62
+ 3.285188 5 7 ack 40 ------- 0 5.0 0.0 37 81
r 3.287828 7 5 tcp 1040 ------- 0 0.0 5.0 38 59
h 3.287828 5 7 ack 40 ------- 0 5.0 0.0 38 82
- 3.290944 0 7 tcp 1040 ------- 0 0.0 5.0 40 63
h 3.295832 0 7 tcp 1040 ---A--- 0 0.0 5.0 24 83
+ 3.327828 5 7 ack 40 ------- 0 5.0 0.0 38 82
r 3.330468 7 5 tcp 1040 ------- 0 0.0 5.0 39 62
h 3.330468 5 7 ack 40 ------- 0 5.0 0.0 39 84
- 3.333584 0 7 tcp 1040 ------- 0 0.0 5.0 41 66
+ 3.335832 0 7 tcp 1040 ---A--- 0 0.0 5.0 24 83
+ 3.370468 5 7 ack 40 ------- 0 5.0 0.0 39 84
r 3.373108 7 5 tcp 1040 ------- 0 0.0 5.0 40 63
h 3.373108 5 7 ack 40 ------- 0 5.0 0.0 40 85
- 3.376224 0 7 tcp 1040 ------- 0 0.0 5.0 42 67
+ 3.413108 5 7 ack 40 ------- 0 5.0 0.0 40 85
r 3.415748 7 5 tcp 1040 ------- 0 0.0 5.0 41 66
h 3.415748 5 7 ack 40 ------- 0 5.0 0.0 41 86
- 3.419512 0 7 tcp 1040 ------- 0 0.0 5.0 43 68
+ 3.455748 5 7 ack 40 ------- 0 5.0 0.0 41 86
r 3.459036 7 5 tcp 1040 ------- 0 0.0 5.0 42 67
h 3.459036 5 7 ack 40 ------- 0 5.0 0.0 42 87
- 3.4628 0 7 tcp 1040 ---A--- 0 0.0 5.0 24 83
+ 3.499036 5 7 ack 40 ------- 0 5.0 0.0 42 87
r 3.502324 7 5 tcp 1040 ------- 0 0.0 5.0 43 68
h 3.502324 5 7 ack 40 ------- 0 5.0 0.0 43 88
+ 3.542324 5 7 ack 40 ------- 0 5.0 0.0 43 88
r 3.544964 7 5 tcp 1040 ---A--- 0 0.0 5.0 24 83
h 3.544964 5 7 ack 40 ------- 0 5.0 0.0 43 89
+ 3.584964 5 7 ack 40 ------- 0 5.0 0.0 43 89
h 4.535832 0 7 tcp 1040 ---A--- 0 0.0 5.0 24 90
+ 4.575832 0 7 tcp 1040 ---A--- 0 0.0 5.0 24 90
- 4.575832 0 7 tcp 1040 ---A--- 0 0.0 5.0 24 90
r 4.657996 7 5 tcp 1040 ---A--- 0 0.0 5.0 24 90
h 4.657996 5 7 ack 40 ------- 0 5.0 0.0 43 91
- 4.659676 5 7 ack 40 ------- 0 5.0 0.0 25 69
- 4.662716 5 7 ack 40 ------- 0 5.0 0.0 26 70
- 4.665756 5 7 ack 40 ------- 0 5.0 0.0 27 71
- 4.668796 5 7 ack 40 ------- 0 5.0 0.0 28 72
- 4.671836 5 7 ack 40 ------- 0 5.0 0.0 29 73
- 4.674876 5 7 ack 40 ------- 0 5.0 0.0 30 74
- 4.677916 5 7 ack 40 ------- 0 5.0 0.0 31 75
- 4.680956 5 7 ack 40 ------- 0 5.0 0.0 32 76
- 4.683996 5 7 ack 40 ------- 0 5.0 0.0 33 77
- 4.687036 5 7 ack 40 ------- 0 5.0 0.0 34 78
- 4.690076 5 7 ack 40 ------- 0 5.0 0.0 35 79
- 4.693116 5 7 ack 40 ------- 0 5.0 0.0 36 80
- 4.696156 5 7 ack 40 ------- 0 5.0 0.0 37 81
+ 4.697996 5 7 ack 40 ------- 0 5.0 0.0 43 91
- 4.699196 5 7 ack 40 ------- 0 5.0 0.0 38 82
r 4.6992 7 0 ack 40 ------- 0 5.0 0.0 24 65
h 4.6992 0 7 tcp 1040 ------- 0 0.0 5.0 25 92
h 4.6992 0 7 tcp 1040 ------- 0 0.0 5.0 26 93
- 4.702236 5 7 ack 40 ------- 0 5.0 0.0 39 84
r 4.70224 7 0 ack 40 ------- 0 5.0 0.0 25 69
h 4.70224 0 7 tcp 1040 ------- 0 0.0 5.0 27 94
- 4.705276 5 7 ack 40 ------- 0 5.0 0.0 40 85
r 4.70528 7 0 ack 40 ------- 0 5.0 0.0 26 70
h 4.70528 0 7 tcp 1040 ------- 0 0.0 5.0 28 95
- 4.708316 5 7 ack 40 ------- 0 5.0 0.0 41 86
r 4.70832 7 0 ack 40 ------- 0 5.0 0.0 27 71
h 4.70832 0 7 tcp 1040 ------- 0 0.0 5.0 29 96
h 4.70832 0 7 tcp 1040 ------- 0 0.0 5.0 30 97
- 4.711356 5 7 ack 40 ------- 0 5.0 0.0 42 87
r 4.71136 7 0 ack 40 ------- 0 5.0 0.0 28 72
h 4.71136 0 7 tcp 1040 ------- 0 0.0 5.0 31 98
- 4.714396 5 7 ack 40 ------- 0 5.0 0.0 43 88
r 4.7144 7 0 ack 40 ------- 0 5.0 0.0 29 73
h 4.7144 0 7 tcp 1040 ------- 0 0.0 5.0 32 99
- 4.717436 5 7 ack 40 ------- 0 5.0 0.0 43 89
r 4.71744 7 0 ack 40 ------- 0 5.0 0.0 30 74
h 4.71744 0 7 tcp 1040 ------- 0 0.0 5.0 33 100
h 4.71744 0 7 tcp 1040 ------- 0 0.0 5.0 34 101
- 4.720476 5 7 ack 40 ------- 0 5.0 0.0 43 91
r 4.72048 7 0 ack 40 ------- 0 5.0 0.0 31 75
h 4.72048 0 7 tcp 1040 ------- 0 0.0 5.0 35 102
r 4.72352 7 0 ack 40 ------- 0 5.0 0.0 32 76
h 4.72352 0 7 tcp 1040 ------- 0 0.0 5.0 36 103
r 4.72656 7 0 ack 40 ------- 0 5.0 0.0 33 77
h 4.72656 0 7 tcp 1040 ------- 0 0.0 5.0 37 104
r 4.7296 7 0 ack 40 ------- 0 5.0 0.0 34 78
h 4.7296 0 7 tcp 1040 ------- 0 0.0 5.0 38 105
r 4.73264 7 0 ack 40 ------- 0 5.0 0.0 35 79
h 4.73264 0 7 tcp 1040 ------- 0 0.0 5.0 39 106
h 4.73264 0 7 tcp 1040 ------- 0 0.0 5.0 40 107
r 4.73568 7 0 ack 40 ------- 0 5.0 0.0 36 80
h 4.73568 0 7 tcp 1040 ------- 0 0.0 5.0 41 108
r 4.73872 7 0 ack 40 ------- 0 5.0 0.0 37 81
h 4.73872 0 7 tcp 1040 ------- 0 0.0 5.0 42 109
+ 4.7392 0 7 tcp 1040 ------- 0 0.0 5.0 25 92
- 4.7392 0 7 tcp 1040 ------- 0 0.0 5.0 25 92
+ 4.7392 0 7 tcp 1040 ------- 0 0.0 5.0 26 93
r 4.74176 7 0 ack 40 ------- 0 5.0 0.0 38 82
h 4.74176 0 7 tcp 1040 ------- 0 0.0 5.0 43 110
+ 4.74224 0 7 tcp 1040 ------- 0 0.0 5.0 27 94
r 4.7448 7 0 ack 40 ------- 0 5.0 0.0 39 84
h 4.7448 0 7 tcp 1040 ------- 0 0.0 5.0 44 111
+ 4.74528 0 7 tcp 1040 ------- 0 0.0 5.0 28 95
r 4.74784 7 0 ack 40 ------- 0 5.0 0.0 40 85
h 4.74784 0 7 tcp 1040 ------- 0 0.0 5.0 45 112
h 4.74784 0 7 tcp 1040 ------- 0 0.0 5.0 46 113
+ 4.74832 0 7 tcp 1040 ------- 0 0.0 5.0 29 96
+ 4.74832 0 7 tcp 1040 ------- 0 0.0 5.0 30 97
r 4.75088 7 0 ack 40 ------- 0 5.0 0.0 41 86
h 4.75088 0 7 tcp 1040 ------- 0 0.0 5.0 47 114
+ 4.75136 0 7 tcp 1040 ------- 0 0.0 5.0 31 98
r 4.75392 7 0 ack 40 ------- 0 5.0 0.0 42 87
h 4.75392 0 7 tcp 1040 ------- 0 0.0 5.0 48 115
+ 4.7544 0 7 tcp 1040 ------- 0 0.0 5.0 32 99
r 4.75696 7 0 ack 40 ------- 0 5.0 0.0 43 88
h 4.75696 0 7 tcp 1040 ------- 0 0.0 5.0 49 116
+ 4.75744 0 7 tcp 1040 ------- 0 0.0 5.0 33 100
+ 4.75744 0 7 tcp 1040 ------- 0 0.0 5.0 34 101
r 4.76 7 0 ack 40 ------- 0 5.0 0.0 43 89
h 4.76 0 7 tcp 1040 ------- 0 0.0 5.0 50 117
+ 4.76048 0 7 tcp 1040 ------- 0 0.0 5.0 35 102
r 4.76304 7 0 ack 40 ------- 0 5.0 0.0 43 91
h 4.76304 0 7 tcp 1040 ------- 0 0.0 5.0 51 118
+ 4.76352 0 7 tcp 1040 ------- 0 0.0 5.0 36 103
+ 4.76656 0 7 tcp 1040 ------- 0 0.0 5.0 37 104
+ 4.7696 0 7 tcp 1040 ------- 0 0.0 5.0 38 105
+ 4.77264 0 7 tcp 1040 ------- 0 0.0 5.0 39 106
+ 4.77264 0 7 tcp 1040 ------- 0 0.0 5.0 40 107
+ 4.77568 0 7 tcp 1040 ------- 0 0.0 5.0 41 108
+ 4.77872 0 7 tcp 1040 ------- 0 0.0 5.0 42 109
+ 4.78176 0 7 tcp 1040 ------- 0 0.0 5.0 43 110
- 4.78184 0 7 tcp 1040 ------- 0 0.0 5.0 26 93
+ 4.7848 0 7 tcp 1040 ------- 0 0.0 5.0 44 111
+ 4.78784 0 7 tcp 1040 ------- 0 0.0 5.0 45 112
+ 4.78784 0 7 tcp 1040 ------- 0 0.0 5.0 46 113
+ 4.79088 0 7 tcp 1040 ------- 0 0.0 5.0 47 114
+ 4.79392 0 7 tcp 1040 ------- 0 0.0 5.0 48 115
+ 4.79696 0 7 tcp 1040 ------- 0 0.0 5.0 49 116
+ 4.8 0 7 tcp 1040 ------- 0 0.0 5.0 50 117
+ 4.80304 0 7 tcp 1040 ------- 0 0.0 5.0 51 118
r 4.821364 7 5 tcp 1040 ------- 0 0.0 5.0 25 92
h 4.821364 5 7 ack 40 ------- 0 5.0 0.0 43 119
- 4.82448 0 7 tcp 1040 ------- 0 0.0 5.0 27 94
+ 4.861364 5 7 ack 40 ------- 0 5.0 0.0 43 119
- 4.861364 5 7 ack 40 ------- 0 5.0 0.0 43 119
r 4.864004 7 5 tcp 1040 ------- 0 0.0 5.0 26 93
h 4.864004 5 7 ack 40 ------- 0 5.0 0.0 43 120
- 4.86712 0 7 tcp 1040 ------- 0 0.0 5.0 28 95
+ 4.904004 5 7 ack 40 ------- 0 5.0 0.0 43 120
- 4.904004 5 7 ack 40 ------- 0 5.0 0.0 43 120
r 4.906644 7 5 tcp 1040 ------- 0 0.0 5.0 27 94
h 4.906644 5 7 ack 40 ------- 0 5.0 0.0 43 121
r 4.910328 7 0 ack 40 ------- 0 5.0 0.0 43 119
- 4.913448 0 7 tcp 1040 ------- 0 0.0 5.0 29 96
+ 4.946644 5 7 ack 40 ------- 0 5.0 0.0 43 121
- 4.946644 5 7 ack 40 ------- 0 5.0 0.0 43 121
r 4.952972 7 5 tcp 1040 ------- 0 0.0 5.0 28 95
h 4.952972 5 7 ack 40 ------- 0 5.0 0.0 43 122
r 4.959864 7 0 ack 40 ------- 0 5.0 0.0 43 120
- 4.965056 0 7 tcp 1040 ------- 0 0.0 5.0 30 97
+ 4.992972 5 7 ack 40 ------- 0 5.0 0.0 43 122
- 4.992972 5 7 ack 40 ------- 0 5.0 0.0 43 122
r 5.00458 7 5 tcp 1040 ------- 0 0.0 5.0 29 96
h 5.00458 5 7 ack 40 ------- 0 5.0 0.0 43 123
r 5.008264 7 0 ack 40 ------- 0 5.0 0.0 43 121
- 5.011384 0 7 tcp 1040 ------- 0 0.0 5.0 31 98
+ 5.04458 5 7 ack 40 ------- 0 5.0 0.0 43 123
r 5.050908 7 5 tcp 1040 ------- 0 0.0 5.0 30 97
h 5.050908 5 7 ack 40 ------- 0 5.0 0.0 43 124
- 5.054672 0 7 tcp 1040 ------- 0 0.0 5.0 32 99
+ 5.090908 5 7 ack 40 ------- 0 5.0 0.0 43 124
r 5.094196 7 5 tcp 1040 ------- 0 0.0 5.0 31 98
h 5.094196 5 7 ack 40 ------- 0 5.0 0.0 43 125
- 5.124848 0 7 tcp 1040 ------- 0 0.0 5.0 33 100
+ 5.134196 5 7 ack 40 ------- 0 5.0 0.0 43 125
r 5.164372 7 5 tcp 1040 ------- 0 0.0 5.0 32 99
h 5.164372 5 7 ack 40 ------- 0 5.0 0.0 43 126
- 5.170696 0 7 tcp 1040 ------- 0 0.0 5.0 34 101
+ 5.204372 5 7 ack 40 ------- 0 5.0 0.0 43 126
r 5.21022 7 5 tcp 1040 ------- 0 0.0 5.0 33 100
h 5.21022 5 7 ack 40 ------- 0 5.0 0.0 43 127
- 5.216544 0 7 tcp 1040 ------- 0 0.0 5.0 35 102
+ 5.25022 5 7 ack 40 ------- 0 5.0 0.0 43 127
r 5.256068 7 5 tcp 1040 ------- 0 0.0 5.0 34 101
h 5.256068 5 7 ack 40 ------- 0 5.0 0.0 43 128
- 5.259184 0 7 tcp 1040 ------- 0 0.0 5.0 36 103
+ 5.296068 5 7 ack 40 ------- 0 5.0 0.0 43 128
r 5.298708 7 5 tcp 1040 ------- 0 0.0 5.0 35 102
h 5.298708 5 7 ack 40 ------- 0 5.0 0.0 43 129
- 5.302472 0 7 tcp 1040 ------- 0 0.0 5.0 37 104
+ 5.338708 5 7 ack 40 ------- 0 5.0 0.0 43 129
r 5.341996 7 5 tcp 1040 ------- 0 0.0 5.0 36 103
h 5.341996 5 7 ack 40 ------- 0 5.0 0.0 43 130
- 5.345112 0 7 tcp 1040 ------- 0 0.0 5.0 38 105
+ 5.381996 5 7 ack 40 ------- 0 5.0 0.0 43 130
r 5.384636 7 5 tcp 1040 ------- 0 0.0 5.0 37 104
h 5.384636 5 7 ack 40 ------- 0 5.0 0.0 43 131
- 5.387752 0 7 tcp 1040 ------- 0 0.0 5.0 39 106
+ 5.424636 5 7 ack 40 ------- 0 5.0 0.0 43 131
r 5.427276 7 5 tcp 1040 ------- 0 0.0 5.0 38 105
h 5.427276 5 7 ack 40 ------- 0 5.0 0.0 43 132
- 5.430392 0 7 tcp 1040 ------- 0 0.0 5.0 40 107
+ 5.467276 5 7 ack 40 ------- 0 5.0 0.0 43 132
r 5.469916 7 5 tcp 1040 ------- 0 0.0 5.0 39 106
h 5.469916 5 7 ack 40 ------- 0 5.0 0.0 43 133
- 5.473032 0 7 tcp 1040 ------- 0 0.0 5.0 41 108
+ 5.509916 5 7 ack 40 ------- 0 5.0 0.0 43 133
r 5.512556 7 5 tcp 1040 ------- 0 0.0 5.0 40 107
h 5.512556 5 7 ack 40 ------- 0 5.0 0.0 43 134
- 5.515672 0 7 tcp 1040 ------- 0 0.0 5.0 42 109
+ 5.552556 5 7 ack 40 ------- 0 5.0 0.0 43 134
r 5.555196 7 5 tcp 1040 ------- 0 0.0 5.0 41 108
h 5.555196 5 7 ack 40 ------- 0 5.0 0.0 43 135
- 5.558312 0 7 tcp 1040 ------- 0 0.0 5.0 43 110
+ 5.595196 5 7 ack 40 ------- 0 5.0 0.0 43 135
r 5.597836 7 5 tcp 1040 ------- 0 0.0 5.0 42 109
h 5.597836 5 7 ack 40 ------- 0 5.0 0.0 43 136
- 5.600952 0 7 tcp 1040 ------- 0 0.0 5.0 44 111
+ 5.637836 5 7 ack 40 ------- 0 5.0 0.0 43 136
r 5.640476 7 5 tcp 1040 ------- 0 0.0 5.0 43 110
h 5.640476 5 7 ack 40 ------- 0 5.0 0.0 43 137
- 5.64424 0 7 tcp 1040 ------- 0 0.0 5.0 45 112
+ 5.680476 5 7 ack 40 ------- 0 5.0 0.0 43 137
r 5.683764 7 5 tcp 1040 ------- 0 0.0 5.0 44 111
h 5.683764 5 7 ack 40 ------- 0 5.0 0.0 44 138
- 5.68688 0 7 tcp 1040 ------- 0 0.0 5.0 46 113
+ 5.723764 5 7 ack 40 ------- 0 5.0 0.0 44 138
r 5.726404 7 5 tcp 1040 ------- 0 0.0 5.0 45 112
h 5.726404 5 7 ack 40 ------- 0 5.0 0.0 45 139
- 5.72952 0 7 tcp 1040 ------- 0 0.0 5.0 47 114
+ 5.766404 5 7 ack 40 ------- 0 5.0 0.0 45 139
r 5.769044 7 5 tcp 1040 ------- 0 0.0 5.0 46 113
h 5.769044 5 7 ack 40 ------- 0 5.0 0.0 46 140
- 5.77216 0 7 tcp 1040 ------- 0 0.0 5.0 48 115
+ 5.809044 5 7 ack 40 ------- 0 5.0 0.0 46 140
r 5.811684 7 5 tcp 1040 ------- 0 0.0 5.0 47 114
h 5.811684 5 7 ack 40 ------- 0 5.0 0.0 47 141
- 5.8148 0 7 tcp 1040 ------- 0 0.0 5.0 49 116
+ 5.851684 5 7 ack 40 ------- 0 5.0 0.0 47 141
r 5.854324 7 5 tcp 1040 ------- 0 0.0 5.0 48 115
h 5.854324 5 7 ack 40 ------- 0 5.0 0.0 48 142
- 5.85744 0 7 tcp 1040 ------- 0 0.0 5.0 50 11