s 0.000000000 _0_ AGT  --- 0 cbr 210 [0 0 0 0] ------- [0:0 3:0 32 0] [0] 0 0
r 0.000000000 _0_ RTR  --- 0 cbr 210 [0 0 0 0] ------- [0:0 3:0 32 0] [0] 0 0
s 0.000000000 _0_ RTR  --- 0 AODV 48 [0 0 0 0] ------- [0:255 -1:255 30 0] [0x2 1 1 [3 0] [0 4]] (REQUEST)
s 0.000115000 _0_ MAC  --- 0 AODV 106 [0 ffffffff 0 800] ------- [0:255 -1:255 30 0] [0x2 1 1 [3 0] [0 4]] (REQUEST)
r 0.000963667 _1_ MAC  --- 0 AODV 48 [0 ffffffff 0 800] ------- [0:255 -1:255 30 0] [0x2 1 1 [3 0] [0 4]] (REQUEST)
r 0.000988667 _1_ RTR  --- 0 AODV 48 [0 ffffffff 0 800] ------- [0:255 -1:255 30 0] [0x2 1 1 [3 0] [0 4]] (REQUEST)
s 0.001869893 _1_ RTR  --- 0 AODV 48 [0 ffffffff 0 800] ------- [1:255 -1:255 29 0] [0x2 2 1 [3 0] [0 4]] (REQUEST)
s 0.002264893 _1_ MAC  --- 0 AODV 106 [0 ffffffff 1 800] ------- [1:255 -1:255 29 0] [0x2 2 1 [3 0] [0 4]] (REQUEST)
r 0.003113560 _0_ MAC  --- 0 AODV 48 [0 ffffffff 1 800] ------- [1:255 -1:255 29 0] [0x2 2 1 [3 0] [0 4]] (REQUEST)
r 0.003113560 _2_ MAC  --- 0 AODV 48 [0 ffffffff 1 800] ------- [1:255 -1:255 29 0] [0x2 2 1 [3 0] [0 4]] (REQUEST)
r 0.003138560 _0_ RTR  --- 0 AODV 48 [0 ffffffff 1 800] ------- [1:255 -1:255 29 0] [0x2 2 1 [3 0] [0 4]] (REQUEST)
r 0.003138560 _2_ RTR  --- 0 AODV 48 [0 ffffffff 1 800] ------- [1:255 -1:255 29 0] [0x2 2 1 [3 0] [0 4]] (REQUEST)
s 0.003750000 _0_ AGT  --- 1 cbr 210 [0 0 0 0] ------- [0:0 3:0 32 0] [1] 0 0
r 0.003750000 _0_ RTR  --- 1 cbr 210 [0 0 0 0] ------- [0:0 3:0 32 0] [1] 0 0
s 0.006268178 _2_ RTR  --- 0 AODV 48 [0 ffffffff 1 800] ------- [2:255 -1:255 28 0] [0x2 3 1 [3 0] [0 4]] (REQUEST)
s 0.006543178 _2_ MAC  --- 0 AODV 106 [0 ffffffff 2 800] ------- [2:255 -1:255 28 0] [0x2 3 1 [3 0] [0 4]] (REQUEST)
r 0.007391844 _1_ MAC  --- 0 AODV 48 [0 ffffffff 2 800] ------- [2:255 -1:255 28 0] [0x2 3 1 [3 0] [0 4]] (REQUEST)
r 0.007391844 _3_ MAC  --- 0 AODV 48 [0 ffffffff 2 800] ------- [2:255 -1:255 28 0] [0x2 3 1 [3 0] [0 4]] (REQUEST)
r 0.007416844 _1_ RTR  --- 0 AODV 48 [0 ffffffff 2 800] ------- [2:255 -1:255 28 0] [0x2 3 1 [3 0] [0 4]] (REQUEST)
r 0.007416844 _3_ RTR  --- 0 AODV 48 [0 ffffffff 2 800] ------- [2:255 -1:255 28 0] [0x2 3 1 [3 0] [0 4]] (REQUEST)
s 0.007416844 _3_ RTR  --- 0 AODV 44 [0 0 0 0] ------- [3:255 0:255 30 2] [0x4 1 [3 4] 10.000000] (REPLY)
s 0.007500000 _0_ AGT  --- 2 cbr 210 [0 0 0 0] ------- [0:0 3:0 32 0] [2] 0 0
r 0.007500000 _0_ RTR  --- 2 cbr 210 [0 0 0 0] ------- [0:0 3:0 32 0] [2] 0 0
s 0.007831844 _3_ MAC  --- 0 ARP 86 [0 ffffffff 3 806] ------- [REQUEST 3/3 0/2]
r 0.008520511 _2_ MAC  --- 0 ARP 28 [0 ffffffff 3 806] ------- [REQUEST 3/3 0/2]
s 0.008815511 _2_ MAC  --- 0 ARP 86 [13a 3 2 806] ------- [REPLY 2/2 3/3]
r 0.009421511 _3_ MAC  --- 0 ARP 28 [13a 3 2 806] ------- [REPLY 2/2 3/3]
s 0.009431511 _3_ MAC  --- 0 ACK 38 [0 2 0 0] 
r 0.009736178 _2_ MAC  --- 0 ACK 38 [0 2 0 0] 
s 0.009805511 _3_ MAC  --- 0 AODV 102 [13a 2 3 800] ------- [3:255 0:255 30 2] [0x4 1 [3 4] 10.000000] (REPLY)
r 0.010518178 _2_ MAC  --- 0 AODV 44 [13a 2 3 800] ------- [3:255 0:255 30 2] [0x4 1 [3 4] 10.000000] (REPLY)
s 0.010528178 _2_ MAC  --- 0 ACK 38 [0 3 0 0] 
r 0.010543178 _2_ RTR  --- 0 AODV 44 [13a 2 3 800] ------- [3:255 0:255 30 2] [0x4 1 [3 4] 10.000000] (REPLY)
f 0.010543178 _2_ RTR  --- 0 AODV 44 [13a 2 3 800] ------- [3:255 0:255 29 1] [0x4 2 [3 4] 10.000000] (REPLY)
r 0.010832844 _3_ MAC  --- 0 ACK 38 [0 3 0 0] 
s 0.010902178 _2_ MAC  --- 0 ARP 86 [0 ffffffff 2 806] ------- [REQUEST 2/2 0/1]
s 0.011250000 _0_ AGT  --- 3 cbr 210 [0 0 0 0] ------- [0:0 3:0 32 0] [3] 0 0
r 0.011250000 _0_ RTR  --- 3 cbr 210 [0 0 0 0] ------- [0:0 3:0 32 0] [3] 0 0
r 0.011590844 _1_ MAC  --- 0 ARP 28 [0 ffffffff 2 806] ------- [REQUEST 2/2 0/1]
r 0.011590844 _3_ MAC  --- 0 ARP 28 [0 ffffffff 2 806] ------- [REQUEST 2/2 0/1]
s 0.012005844 _1_ MAC  --- 0 ARP 86 [13a 2 1 806] ------- [REPLY 1/1 2/2]
r 0.012611844 _2_ MAC  --- 0 ARP 28 [13a 2 1 806] ------- [REPLY 1/1 2/2]
s 0.012621844 _2_ MAC  --- 0 ACK 38 [0 1 0 0] 
r 0.012926511 _1_ MAC  --- 0 ACK 38 [0 1 0 0] 
s 0.013215844 _2_ MAC  --- 0 AODV 102 [13a 1 2 800] ------- [3:255 0:255 29 1] [0x4 2 [3 4] 10.000000] (REPLY)
r 0.013928511 _1_ MAC  --- 0 AODV 44 [13a 1 2 800] ------- [3:255 0:255 29 1] [0x4 2 [3 4] 10.000000] (REPLY)
s 0.013938511 _1_ MAC  --- 0 ACK 38 [0 2 0 0] 
r 0.013953511 _1_ RTR  --- 0 AODV 44 [13a 1 2 800] ------- [3:255 0:255 29 1] [0x4 2 [3 4] 10.000000] (REPLY)
f 0.013953511 _1_ RTR  --- 0 AODV 44 [13a 1 2 800] ------- [3:255 0:255 28 0] [0x4 3 [3 4] 10.000000] (REPLY)
r 0.014243178 _2_ MAC  --- 0 ACK 38 [0 2 0 0] 
s 0.014772511 _1_ MAC  --- 0 ARP 86 [0 ffffffff 1 806] ------- [REQUEST 1/1 0/0]
s 0.015000000 _0_ AGT  --- 4 cbr 210 [0 0 0 0] ------- [0:0 3:0 32 0] [4] 0 0
r 0.015000000 _0_ RTR  --- 4 cbr 210 [0 0 0 0] ------- [0:0 3:0 32 0] [4] 0 0
r 0.015461178 _0_ MAC  --- 0 ARP 28 [0 ffffffff 1 806] ------- [REQUEST 1/1 0/0]
r 0.015461178 _2_ MAC  --- 0 ARP 28 [0 ffffffff 1 806] ------- [REQUEST 1/1 0/0]
s 0.015716178 _0_ MAC  --- 0 ARP 86 [13a 1 0 806] ------- [REPLY 0/0 1/1]
r 0.016322178 _1_ MAC  --- 0 ARP 28 [13a 1 0 806] ------- [REPLY 0/0 1/1]
s 0.016332178 _1_ MAC  --- 0 ACK 38 [0 0 0 0] 
r 0.016636844 _0_ MAC  --- 0 ACK 38 [0 0 0 0] 
s 0.016806178 _1_ MAC  --- 0 AODV 102 [13a 0 1 800] ------- [3:255 0:255 28 0] [0x4 3 [3 4] 10.000000] (REPLY)
r 0.017518844 _0_ MAC  --- 0 AODV 44 [13a 0 1 800] ------- [3:255 0:255 28 0] [0x4 3 [3 4] 10.000000] (REPLY)
s 0.017528844 _0_ MAC  --- 0 ACK 38 [0 1 0 0] 
r 0.017543844 _0_ RTR  --- 0 AODV 44 [13a 0 1 800] ------- [3:255 0:255 28 0] [0x4 3 [3 4] 10.000000] (REPLY)
s 0.017543844 _0_ RTR  --- 0 cbr 230 [0 0 0 0] ------- [0:0 3:0 30 1] [0] 0 0
r 0.017833511 _1_ MAC  --- 0 ACK 38 [0 1 0 0] 
s 0.018002844 _0_ MAC  --- 0 cbr 288 [13a 1 0 800] ------- [0:0 3:0 30 1] [0] 0 0
s 0.018750000 _0_ AGT  --- 5 cbr 210 [0 0 0 0] ------- [0:0 3:0 32 0] [5] 0 0
r 0.018750000 _0_ RTR  --- 5 cbr 210 [0 0 0 0] ------- [0:0 3:0 32 0] [5] 0 0
s 0.018750000 _0_ RTR  --- 5 cbr 230 [0 0 0 0] ------- [0:0 3:0 30 1] [5] 0 0
r 0.019955511 _1_ MAC  --- 0 cbr 230 [13a 1 0 800] ------- [0:0 3:0 30 1] [0] 1 0
s 0.019965511 _1_ MAC  --- 0 ACK 38 [0 0 0 0] 
r 0.019980511 _1_ RTR  --- 0 cbr 230 [13a 1 0 800] ------- [0:0 3:0 30 1] [0] 1 0
f 0.019980511 _1_ RTR  --- 0 cbr 230 [13a 1 0 800] ------- [0:0 3:0 29 2] [0] 1 0
r 0.020270178 _0_ MAC  --- 0 ACK 38 [0 0 0 0] 
s 0.020559511 _1_ MAC  --- 0 cbr 288 [13a 2 1 800] ------- [0:0 3:0 29 2] [0] 1 0
s 0.022500000 _0_ AGT  --- 6 cbr 210 [0 0 0 0] ------- [0:0 3:0 32 0] [6] 0 0
r 0.022500000 _0_ RTR  --- 6 cbr 210 [0 0 0 0] ------- [0:0 3:0 32 0] [6] 0 0
s 0.022500000 _0_ RTR  --- 6 cbr 230 [0 0 0 0] ------- [0:0 3:0 30 1] [6] 0 0
r 0.022512178 _2_ MAC  --- 0 cbr 230 [13a 2 1 800] ------- [0:0 3:0 29 2] [0] 2 0
s 0.022522178 _2_ MAC  --- 0 ACK 38 [0 1 0 0] 
r 0.022537178 _2_ RTR  --- 0 cbr 230 [13a 2 1 800] ------- [0:0 3:0 29 2] [0] 2 0
f 0.022537178 _2_ RTR  --- 0 cbr 230 [13a 2 1 800] ------- [0:0 3:0 28 3] [0] 2 0
r 0.022826844 _1_ MAC  --- 0 ACK 38 [0 1 0 0] 
s 0.023056178 _2_ MAC  --- 0 cbr 288 [13a 3 2 800] ------- [0:0 3:0 28 3] [0] 2 0
s 0.023096178 _0_ MAC  --- 5 cbr 288 [13a 1 0 800] ------- [0:0 3:0 30 1] [5] 0 0
r 0.025008844 _3_ MAC  --- 0 cbr 230 [13a 3 2 800] ------- [0:0 3:0 28 3] [0] 3 0
s 0.025018844 _3_ MAC  --- 0 ACK 38 [0 2 0 0] 
r 0.025033844 _3_ AGT  --- 0 cbr 230 [13a 3 2 800] ------- [0:0 3:0 28 3] [0] 3 0
D 0.025048844 _1_ MAC  COL 5 cbr 288 [13a 1 0 800] ------- [0:0 3:0 30 1] [5] 0 0
r 0.025323511 _2_ MAC  --- 0 ACK 38 [0 2 0 0] 
s 0.026196178 _0_ MAC  --- 5 cbr 288 [13a 1 0 800] ------- [0:0 3:0 30 1] [5] 0 0
s 0.026250000 _0_ AGT  --- 7 cbr 210 [0 0 0 0] ------- [0:0 3:0 32 0] [7] 0 0
r 0.026250000 _0_ RTR  --- 7 cbr 210 [0 0 0 0] ------- [0:0 3:0 32 0] [7] 0 0
s 0.026250000 _0_ RTR  --- 7 cbr 230 [0 0 0 0] ------- [0:0 3:0 30 1] [7] 0 0
s 0.027543844 _0_ RTR  --- 1 cbr 230 [0 0 0 0] ------- [0:0 3:0 30 1] [1] 0 0
r 0.028148844 _1_ MAC  --- 5 cbr 230 [13a 1 0 800] ------- [0:0 3:0 30 1] [5] 1 0
s 0.028158844 _1_ MAC  --- 0 ACK 38 [0 0 0 0] 
r 0.028173844 _1_ RTR  --- 5 cbr 230 [13a 1 0 800] ------- [0:0 3:0 30 1] [5] 1 0
f 0.028173844 _1_ RTR  --- 5 cbr 230 [13a 1 0 800] ------- [0:0 3:0 29 2] [5] 1 0
r 0.028463511 _0_ MAC  --- 0 ACK 38 [0 0 0 0] 
s 0.028553511 _0_ MAC  --- 6 cbr 288 [13a 1 0 800] ------- [0:0 3:0 30 1] [6] 0 0
s 0.030000000 _0_ AGT  --- 8 cbr 210 [0 0 0 0] ------- [0:0 3:0 32 0] [8] 0 0
r 0.030000000 _0_ RTR  --- 8 cbr 210 [0 0 0 0] ------- [0:0 3:0 32 0] [8] 0 0
s 0.030000000 _0_ RTR  --- 8 cbr 230 [0 0 0 0] ------- [0:0 3:0 30 1] [8] 0 0
r 0.030506178 _1_ MAC  --- 6 cbr 230 [13a 1 0 800] ------- [0:0 3:0 30 1] [6] 1 0
s 0.030516178 _1_ MAC  --- 0 ACK 38 [0 0 0 0] 
r 0.030531178 _1_ RTR  --- 6 cbr 230 [13a 1 0 800] ------- [0:0 3:0 30 1] [6] 1 0
f 0.030531178 _1_ RTR  --- 6 cbr 230 [13a 1 0 800] ------- [0:0 3:0 29 2] [6] 1 0
r 0.030820844 _0_ MAC  --- 0 ACK 38 [0 0 0 0] 
s 0.031170844 _0_ MAC  --- 7 cbr 288 [13a 1 0 800] ------- [0:0 3:0 30 1] [7] 0 0
r 0.033123511 _1_ MAC  --- 7 cbr 230 [13a 1 0 800] ------- [0:0 3:0 30 1] [7] 1 0
s 0.033133511 _1_ MAC  --- 0 ACK 38 [0 0 0 0] 
r 0.033148511 _1_ RTR  --- 7 cbr 230 [13a 1 0 800] ------- [0:0 3:0 30 1] [7] 1 0
f 0.033148511 _1_ RTR  --- 7 cbr 230 [13a 1 0 800] ------- [0:0 3:0 29 2] [7] 1 0
r 0.033438178 _0_ MAC  --- 0 ACK 38 [0 0 0 0] 
s 0.033507511 _1_ MAC  --- 5 cbr 288 [13a 2 1 800] ------- [0:0 3:0 29 2] [5] 1 0
s 0.033750000 _0_ AGT  --- 9 cbr 210 [0 0 0 0] ------- [0:0 3:0 32 0] [9] 0 0
r 0.033750000 _0_ RTR  --- 9 cbr 210 [0 0 0 0] ------- [0:0 3:0 32 0] [9] 0 0
s 0.033750000 _0_ RTR  --- 9 cbr 230 [0 0 0 0] ------- [0:0 3:0 30 1] [9] 0 0
r 0.035460178 _2_ MAC  --- 5 cbr 230 [13a 2 1 800] ------- [0:0 3:0 29 2] [5] 2 0
s 0.035470178 _2_ MAC  --- 0 ACK 38 [0 1 0 0] 
r 0.035485178 _2_ RTR  --- 5 cbr 230 [13a 2 1 800] ------- [0:0 3:0 29 2] [5] 2 0
f 0.035485178 _2_ RTR  --- 5 cbr 230 [13a 2 1 800] ------- [0:0 3:0 28 3] [5] 2 0
r 0.035774844 _1_ MAC  --- 0 ACK 38 [0 1 0 0] 
s 0.035904844 _1_ MAC  --- 6 cbr 288 [13a 2 1 800] ------- [0:0 3:0 29 2] [6] 1 0
s 0.037500000 _0_ AGT  --- 10 cbr 210 [0 0 0 0] ------- [0:0 3:0 32 0] [10] 0 0
r 0.037500000 _0_ RTR  --- 10 cbr 210 [0 0 0 0] ------- [0:0 3:0 32 0] [10] 0 0
s 0.037500000 _0_ RTR  --- 10 cbr 230 [0 0 0 0] ------- [0:0 3:0 30 1] [10] 0 0
s 0.037543844 _0_ RTR  --- 2 cbr 230 [0 0 0 0] ------- [0:0 3:0 30 1] [2] 0 0
r 0.037857511 _2_ MAC  --- 6 cbr 230 [13a 2 1 800] ------- [0:0 3:0 29 2] [6] 2 0
s 0.037867511 _2_ MAC  --- 0 ACK 38 [0 1 0 0] 
r 0.037882511 _2_ RTR  --- 6 cbr 230 [13a 2 1 800] ------- [0:0 3:0 29 2] [6] 2 0
f 0.037882511 _2_ RTR  --- 6 cbr 230 [13a 2 1 800] ------- [0:0 3:0 28 3] [6] 2 0
r 0.038172178 _1_ MAC  --- 0 ACK 38 [0 1 0 0] 
s 0.038281511 _2_ MAC  --- 5 cbr 288 [13a 3 2 800] ------- [0:0 3:0 28 3] [5] 2 0
s 0.038501511 _0_ MAC  --- 1 cbr 288 [13a 1 0 800] ------- [0:0 3:0 30 1] [1] 0 0
r 0.040234178 _3_ MAC  --- 5 cbr 230 [13a 3 2 800] ------- [0:0 3:0 28 3] [5] 3 0
s 0.040244178 _3_ MAC  --- 0 ACK 38 [0 2 0 0] 
r 0.040259178 _3_ AGT  --- 5 cbr 230 [13a 3 2 800] ------- [0:0 3:0 28 3] [5] 3 0
D 0.040454178 _1_ MAC  COL 1 cbr 288 [13a 1 0 800] ------- [0:0 3:0 30 1] [1] 0 0
r 0.040548844 _2_ MAC  --- 0 ACK 38 [0 2 0 0] 
s 0.040798844 _2_ MAC  --- 6 cbr 288 [13a 3 2 800] ------- [0:0 3:0 28 3] [6] 2 0
s 0.041250000 _0_ AGT  --- 11 cbr 210 [0 0 0 0] ------- [0:0 3:0 32 0] [11] 0 0
r 0.041250000 _0_ RTR  --- 11 cbr 210 [0 0 0 0] ------- [0:0 3:0 32 0] [11] 0 0
s 0.041250000 _0_ RTR  --- 11 cbr 230 [0 0 0 0] ------- [0:0 3:0 30 1] [11] 0 0
s 0.041901511 _0_ MAC  --- 1 cbr 288 [13a 1 0 800] ------- [0:0 3:0 30 1] [1] 0 0
r 0.042751511 _3_ MAC  --- 6 cbr 230 [13a 3 2 800] ------- [0:0 3:0 28 3] [6] 3 0
s 0.042761511 _3_ MAC  --- 0 ACK 38 [0 2 0 0] 
r 0.042776511 _3_ AGT  --- 6 cbr 230 [13a 3 2 800] ------- [0:0 3:0 28 3] [6] 3 0
r 0.043066178 _2_ MAC  --- 0 ACK 38 [0 2 0 0] 
D 0.043854178 _1_ MAC  COL 1 cbr 288 [13a 1 0 800] ------- [0:0 3:0 30 1] [1] 0 0
s 0.044508178 _1_ MAC  --- 7 cbr 288 [13a 2 1 800] ------- [0:0 3:0 29 2] [7] 1 0
s 0.045000000 _0_ AGT  --- 12 cbr 210 [0 0 0 0] ------- [0:0 3:0 32 0] [12] 0 0
r 0.045000000 _0_ RTR  --- 12 cbr 210 [0 0 0 0] ------- [0:0 3:0 32 0] [12] 0 0
s 0.045000000 _0_ RTR  --- 12 cbr 230 [0 0 0 0] ------- [0:0 3:0 30 1] [12] 0 0
r 0.046460844 _2_ MAC  --- 7 cbr 230 [13a 2 1 800] ------- [0:0 3:0 29 2] [7] 2 0
s 0.046470844 _2_ MAC  --- 0 ACK 38 [0 1 0 0] 
r 0.046485844 _2_ RTR  --- 7 cbr 230 [13a 2 1 800] ------- [0:0 3:0 29 2] [7] 2 0
f 0.046485844 _2_ RTR  --- 7 cbr 230 [13a 2 1 800] ------- [0:0 3:0 28 3] [7] 2 0
r 0.046775511 _1_ MAC  --- 0 ACK 38 [0 1 0 0] 
s 0.047024844 _2_ MAC  --- 7 cbr 288 [13a 3 2 800] ------- [0:0 3:0 28 3] [7] 2 0
s 0.047543844 _0_ RTR  --- 3 cbr 230 [0 0 0 0] ------- [0:0 3:0 30 1] [3] 0 0
s 0.048750000 _0_ AGT  --- 13 cbr 210 [0 0 0 0] ------- [0:0 3:0 32 0] [13] 0 0
r 0.048750000 _0_ RTR  --- 13 cbr 210 [0 0 0 0] ------- [0:0 3:0 32 0] [13] 0 0
s 0.048750000 _0_ RTR  --- 13 cbr 230 [0 0 0 0] ------- [0:0 3:0 30 1] [13] 0 0
s 0.048964844 _0_ MAC  --- 1 cbr 288 [13a 1 0 800] ------- [0:0 3:0 30 1] [1] 0 0
r 0.048977511 _3_ MAC  --- 7 cbr 230 [13a 3 2 800] ------- [0:0 3:0 28 3] [7] 3 0
s 0.048987511 _3_ MAC  --- 0 ACK 38 [0 2 0 0] 
r 0.049002511 _3_ AGT  --- 7 cbr 230 [13a 3 2 800] ------- [0:0 3:0 28 3] [7] 3 0
r 0.049292178 _2_ MAC  --- 0 ACK 38 [0 2 0 0] 
D 0.050917511 _1_ MAC  COL 1 cbr 288 [13a 1 0 800] ------- [0:0 3:0 30 1] [1] 0 0
s 0.052500000 _0_ AGT  --- 14 cbr 210 [0 0 0 0] ------- [0:0 3:0 32 0] [14] 0 0
r 0.052500000 _0_ RTR  --- 14 cbr 210 [0 0 0 0] ------- [0:0 3:0 32 0] [14] 0 0
s 0.052500000 _0_ RTR  --- 14 cbr 230 [0 0 0 0] ------- [0:0 3:0 30 1] [14] 0 0
s 0.053664844 _0_ MAC  --- 1 cbr 288 [13a 1 0 800] ------- [0:0 3:0 30 1] [1] 0 0
r 0.055617511 _1_ MAC  --- 1 cbr 230 [13a 1 0 800] ------- [0:0 3:0 30 1] [1] 1 0
s 0.055627511 _1_ MAC  --- 0 ACK 38 [0 0 0 0] 
r 0.055642511 _1_ RTR  --- 1 cbr 230 [13a 1 0 800] ------- [0:0 3:0 30 1] [1] 1 0
f 0.055642511 _1_ RTR  --- 1 cbr 230 [13a 1 0 800] ------- [0:0 3:0 29 2] [1] 1 0
r 0.055932178 _0_ MAC  --- 0 ACK 38 [0 0 0 0] 
s 0.056250000 _0_ AGT  --- 15 cbr 210 [0 0 0 0] ------- [0:0 3:0 32 0] [15] 0 0
r 0.056250000 _0_ RTR  --- 15 cbr 210 [0 0 0 0] ------- [0:0 3:0 32 0] [15] 0 0
s 0.056250000 _0_ RTR  --- 15 cbr 230 [0 0 0 0] ------- [0:0 3:0 30 1] [15] 0 0
s 0.056321511 _1_ MAC  --- 1 cbr 288 [13a 2 1 800] ------- [0:0 3:0 29 2] [1] 1 0
s 0.057543844 _0_ RTR  --- 4 cbr 230 [0 0 0 0] ------- [0:0 3:0 30 1] [4] 0 0
r 0.058274178 _2_ MAC  --- 1 cbr 230 [13a 2 1 800] ------- [0:0 3:0 29 2] [1] 2 0
s 0.058284178 _2_ MAC  --- 0 ACK 38 [0 1 0 0] 
r 0.058299178 _2_ RTR  --- 1 cbr 230 [13a 2 1 800] ------- [0:0 3:0 29 2] [1] 2 0
f 0.058299178 _2_ RTR  --- 1 cbr 230 [13a 2 1 800] ------- [0:0 3:0 28 3] [1] 2 0
r 0.058588844 _1_ MAC  --- 0 ACK 38 [0 1 0 0] 
s 0.058798178 _0_ MAC  --- 8 cbr 288 [13a 1 0 800] ------- [0:0 3:0 30 1] [8] 0 0
s 0.058918178 _2_ MAC  --- 1 cbr 288 [13a 3 2 800] ------- [0:0 3:0 28 3] [1] 2 0
D 0.058918844 _1_ MAC  COL 8 cbr 288 [13a 1 0 800] ------- [0:0 3:0 30 1] [8] 0 0
s 0.060000000 _0_ AGT  --- 16 cbr 210 [0 0 0 0] ------- [0:0 3:0 32 0] [16] 0 0
r 0.060000000 _0_ RTR  --- 16 cbr 210 [0 0 0 0] ------- [0:0 3:0 32 0] [16] 0 0
s 0.060000000 _0_ RTR  --- 16 cbr 230 [0 0 0 0] ------- [0:0 3:0 30 1] [16] 0 0
r 0.060870844 _3_ MAC  --- 1 cbr 230 [13a 3 2 800] ------- [0:0 3:0 28 3] [1] 3 0
s 0.060880844 _3_ MAC  --- 0 ACK 38 [0 2 0 0] 
r 0.060895844 _3_ AGT  --- 1 cbr 230 [13a 3 2 800] ------- [0:0 3:0 28 3] [1] 3 0
r 0.061185511 _2_ MAC  --- 0 ACK 38 [0 2 0 0] 
s 0.061598178 _0_ MAC  --- 8 cbr 288 [13a 1 0 800] ------- [0:0 3:0 30 1] [8] 0 0
r 0.063550844 _1_ MAC  --- 8 cbr 230 [13a 1 0 800] ------- [0:0 3:0 30 1] [8] 1 0
s 0.063560844 _1_ MAC  --- 0 ACK 38 [0 0 0 0] 
r 0.063575844 _1_ RTR  --- 8 cbr 230 [13a 1 0 800] ------- [0:0 3:0 30 1] [8] 1 0
f 0.063575844 _1_ RTR  --- 8 cbr 230 [13a 1 0 800] ------- [0:0 3:0 29 2] [8] 1 0
s 0.063750000 _0_ AGT  --- 17 cbr 210 [0 0 0 0] ------- [0:0 3:0 32 0] [17] 0 0
r 0.063750000 _0_ RTR  --- 17 cbr 210 [0 0 0 0] ------- [0:0 3:0 32 0] [17] 0 0
s 0.063750000 _0_ RTR  --- 17 cbr 230 [0 0 0 0] ------- [0:0 3:0 30 1] [17] 0 0
r 0.063865511 _0_ MAC  --- 0 ACK 38 [0 0 0 0] 
s 0.063914844 _1_ MAC  --- 8 cbr 288 [13a 2 1 800] ------- [0:0 3:0 29 2] [8] 1 0
r 0.065867511 _2_ MAC  --- 8 cbr 230 [13a 2 1 800] ------- [0:0 3:0 29 2] [8] 2 0
s 0.065877511 _2_ MAC  --- 0 ACK 38 [0 1 0 0] 
r 0.065892511 _2_ RTR  --- 8 cbr 230 [13a 2 1 800] ------- [0:0 3:0 29 2] [8] 2 0
f 0.065892511 _2_ RTR  --- 8 cbr 230 [13a 2 1 800] ------- [0:0 3:0 28 3] [8] 2 0
r 0.066182178 _1_ MAC  --- 0 ACK 38 [0 1 0 0] 
s 0.066451511 _0_ MAC  --- 9 cbr 288 [13a 1 0 800] ------- [0:0 3:0 30 1] [9] 0 0
s 0.066551511 _2_ MAC  --- 8 cbr 288 [13a 3 2 800] ------- [0:0 3:0 28 3] [8] 2 0
D 0.066552178 _1_ MAC  COL 9 cbr 288 [13a 1 0 800] ------- [0:0 3:0 30 1] [9] 0 0
s 0.067500000 _0_ AGT  --- 18 cbr 210 [0 0 0 0] ------- [0:0 3:0 32 0] [18] 0 0
r 0.067500000 _0_ RTR  --- 18 cbr 210 [0 0 0 0] ------- [0:0 3:0 32 0] [18] 0 0
s 0.067500000 _0_ RTR  --- 18 cbr 230 [0 0 0 0] ------- [0:0 3:0 30 1] [18] 0 0
r 0.068504178 _3_ MAC  --- 8 cbr 230 [13a 3 2 800] ------- [0:0 3:0 28 3] [8] 3 0
s 0.068514178 _3_ MAC  --- 0 ACK 38 [0 2 0 0] 
r 0.068529178 _3_ AGT  --- 8 cbr 230 [13a 3 2 800] ------- [0:0 3:0 28 3] [8] 3 0
r 0.068818844 _2_ MAC  --- 0 ACK 38 [0 2 0 0] 
s 0.068951511 _0_ MAC  --- 9 cbr 288 [13a 1 0 800] ------- [0:0 3:0 30 1] [9] 0 0
r 0.070904178 _1_ MAC  --- 9 cbr 230 [13a 1 0 800] ------- [0:0 3:0 30 1] [9] 1 0
s 0.070914178 _1_ MAC  --- 0 ACK 38 [0 0 0 0] 
r 0.070929178 _1_ RTR  --- 9 cbr 230 [13a 1 0 800] ------- [0:0 3:0 30 1] [9] 1 0
f 0.070929178 _1_ RTR  --- 9 cbr 230 [13a 1 0 800] ------- [0:0 3:0 29 2] [9] 1 0
r 0.071218844 _0_ MAC  --- 0 ACK 38 [0 0 0 0] 
s 0.071250000 _0_ AGT  --- 19 cbr 210 [0 0 0 0] ------- [0:0 3:0 32 0] [19] 0 0
r 0.071250000 _0_ RTR  --- 19 cbr 210 [0 0 0 0] ------- [0:0 3:0 32 0] [19] 0 0
s 0.071250000 _0_ RTR  --- 19 cbr 230 [0 0 0 0] ------- [0:0 3:0 30 1] [19] 0 0
s 0.071268844 _0_ MAC  --- 10 cbr 288 [13a 1 0 800] ------- [0:0 3:0 30 1] [10] 0 0
r 0.073221511 _1_ MAC  --- 10 cbr 230 [13a 1 0 800] ------- [0:0 3:0 30 1] [10] 1 0
s 0.073231511 _1_ MAC  --- 0 ACK 38 [0 0 0 0] 
r 0.073246511 _1_ RTR  --- 10 cbr 230 [13a 1 0 800] ------- [0:0 3:0 30 1] [10] 1 0
f 0.073246511 _1_ RTR  --- 10 cbr 230 [13a 1 0 800] ------- [0:0 3:0 29 2] [10] 1 0
r 0.073536178 _0_ MAC  --- 0 ACK 38 [0 0 0 0] 
s 0.073826178 _0_ MAC  --- 2 cbr 288 [13a 1 0 800] ------- [0:0 3:0 30 1] [2] 0 0
s 0.075000000 _0_ AGT  --- 20 cbr 210 [0 0 0 0] ------- [0:0 3:0 32 0] [20] 0 0
r 0.075000000 _0_ RTR  --- 20 cbr 210 [0 0 0 0] ------- [0:0 3:0 32 0] [20] 0 0
s 0.075000000 _0_ RTR  --- 20 cbr 230 [0 0 0 0] ------- [0:0 3:0 30 1] [20] 0 0
r 0.075778844 _1_ MAC  --- 2 cbr 230 [13a 1 0 800] ------- [0:0 3:0 30 1] [2] 1 0
s 0.075788844 _1_ MAC  --- 0 ACK 38 [0 0 0 0] 
r 0.075803844 _1_ RTR  --- 2 cbr 230 [13a 1 0 800] ------- [0:0 3:0 30 1] [2] 1 0
f 0.075803844 _1_ RTR  --- 2 cbr 230 [13a 1 0 800] ------- [0:0 3:0 29 2] [2] 1 0
r 0.076093511 _0_ MAC  --- 0 ACK 38 [0 0 0 0] 
s 0.076202844 _1_ MAC  --- 9 cbr 288 [13a 2 1 800] ------- [0:0 3:0 29 2] [9] 1 0
r 0.078155511 _2_ MAC  --- 9 cbr 230 [13a 2 1 800] ------- [0:0 3:0 29 2] [9] 2 0
s 0.078165511 _2_ MAC  --- 0 ACK 38 [0 1 0 0] 
r 0.078180511 _2_ RTR  --- 9 cbr 230 [13a 2 1 800] ------- [0:0 3:0 29 2] [9] 2 0
f 0.078180511 _2_ RTR  --- 9 cbr 230 [13a 2 1 800] ------- [0:0 3:0 28 3] [9] 2 0
r 0.078470178 _1_ MAC  --- 0 ACK 38 [0 1 0 0] 
s 0.078540178 _1_ MAC  --- 10 cbr 288 [13a 2 1 800] ------- [0:0 3:0 29 2] [10] 1 0
s 0.078750000 _0_ AGT  --- 21 cbr 210 [0 0 0 0] ------- [0:0 3:0 32 0] [21] 0 0
r 0.078750000 _0_ RTR  --- 21 cbr 210 [0 0 0 0] ------- [0:0 3:0 32 0] [21] 0 0
s 0.078750000 _0_ RTR  --- 21 cbr 230 [0 0 0 0] ------- [0:0 3:0 30 1] [21] 0 0
r 0.080492844 _2_ MAC  --- 10 cbr 230 [13a 2 1 800] ------- [0:0 3:0 29 2] [10] 2 0
s 0.080502844 _2_ MAC  --- 0 ACK 38 [0 1 0 0] 
r 0.080517844 _2_ RTR  --- 10 cbr 230 [13a 2 1 800] ------- [0:0 3:0 29 2] [10] 2 0
f 0.080517844 _2_ RTR  --- 10 cbr 230 [13a 2 1 800] ------- [0:0 3:0 28 3] [10] 2 0
r 0.080807511 _1_ MAC  --- 0 ACK 38 [0 1 0 0] 
s 0.081076844 _0_ MAC  --- 11 cbr 288 [13a 1 0 800] ------- [0:0 3:0 30 1] [11] 0 0
s 0.081116844 _2_ MAC  --- 9 cbr 288 [13a 3 2 800] ------- [0:0 3:0 28 3] [9] 2 0
D 0.081117511 _1_ MAC  COL 11 cbr 288 [13a 1 0 800] ------- [0:0 3:0 30 1] [11] 0 0
s 0.082500000 _0_ AGT  --- 22 cbr 210 [0 0 0 0] ------- [0:0 3:0 32 0] [22] 0 0
r 0.082500000 _0_ RTR  --- 22 cbr 210 [0 0 0 0] ------- [0:0 3:0 32 0] [22] 0 0
s 0.082500000 _0_ RTR  --- 22 cbr 230 [0 0 0 0] ------- [0:0 3:0 30 1] [22] 0 0
r 0.083069511 _3_ MAC  --- 9 cbr 230 [13a 3 2 800] ------- [0:0 3:0 28 3] [9] 3 0
s 0.083079511 _3_ MAC  --- 0 ACK 38 [0 2 0 0] 
r 0.083094511 _3_ AGT  --- 9 cbr 230 [13a 3 2 800] ------- [0:0 3:0 28 3] [9] 3 0
r 0.083384178 _2_ MAC  --- 0 ACK 38 [0 2 0 0] 
s 0.083554178 _2_ MAC  --- 10 cbr 288 [13a 3 2 800] ------- [0:0 3:0 28 3] [10] 2 0
s 0.084316844 _0_ MAC  --- 11 cbr 288 [13a 1 0 800] ------- [0:0 3:0 30 1] [11] 0 0
r 0.085506844 _3_ MAC  --- 10 cbr 230 [13a 3 2 800] ------- [0:0 3:0 28 3] [10] 3 0
s 0.085516844 _3_ MAC  --- 0 ACK 38 [0 2 0 0] 
r 0.085531844 _3_ AGT  --- 10 cbr 230 [13a 3 2 800] ------- [0:0 3:0 28 3] [10] 3 0
r 0.085821511 _2_ MAC  --- 0 ACK 38 [0 2 0 0] 
s 0.086250000 _0_ AGT  --- 23 cbr 210 [0 0 0 0] ------- [0:0 3:0 32 0] [23] 0 0
r 0.086250000 _0_ RTR  --- 23 cbr 210 [0 0 0 0] ------- [0:0 3:0 32 0] [23] 0 0
s 0.086250000 _0_ RTR  --- 23 cbr 230 [0 0 0 0] ------- [0:0 3:0 30 1] [23] 0 0
D 0.086269511 _1_ MAC  COL 11 cbr 288 [13a 1 0 800] ------- [0:0 3:0 30 1] [11] 0 0
s 0.086883511 _1_ MAC  --- 2 cbr 288 [13a 2 1 800] ------- [0:0 3:0 29 2] [2] 1 0
r 0.088836178 _2_ MAC  --- 2 cbr 230 [13a 2 1 800] ------- [0:0 3:0 29 2] [2] 2 0
s 0.088846178 _2_ MAC  --- 0 ACK 38 [0 1 0 0] 
r 0.088861178 _2_ RTR  --- 2 cbr 230 [13a 2 1 800] ------- [0:0 3:0 29 2] [2] 2 0
f 0.088861178 _2_ RTR  --- 2 cbr 230 [13a 2 1 800] ------- [0:0 3:0 28 3] [2] 2 0
r 0.089150844 _1_ MAC  --- 0 ACK 38 [0 1 0 0] 
s 0.089660178 _2_ MAC  --- 2 cbr 288 [13a 3 2 800] ------- [0:0 3:0 28 3] [2] 2 0
s 0.090000000 _0_ AGT  --- 24 cbr 210 [0 0 0 0] ------- [0:0 3:0 32 0] [24] 0 0
r 0.090000000 _0_ RTR  --- 24 cbr 210 [0 0 0 0] ------- [0:0 3:0 32 0] [24] 0 0
s 0.090000000 _0_ RTR  --- 24 cbr 230 [0 0 0 0] ------- [0:0 3:0 30 1] [24] 0 0
s 0.090640178 _0_ MAC  --- 11 cbr 288 [13a 1 0 800] ------- [0:0 3:0 30 1] [11] 0 0
r 0.091612844 _3_ MAC  --- 2 cbr 230 [13a 3 2 800] ------- [0:0 3:0 28 3] [2] 3 0
s 0.091622844 _3_ MAC  --- 0 ACK 38 [0 2 0 0] 
r 0.091637844 _3_ AGT  --- 2 cbr 230 [13a 3 2 800] ------- [0:0 3:0 28 3] [2] 3 0
r 0.091927511 _2_ MAC  --- 0 ACK 38 [0 2 0 0] 
D 0.092592844 _1_ MAC  COL 11 cbr 288 [13a 1 0 800] ------- [0:0 3:0 30 1] [11] 0 0
s 0.093750000 _0_ AGT  --- 25 cbr 210 [0 0 0 0] ------- [0:0 3:0 32 0] [25] 0 0
r 0.093750000 _0_ RTR  --- 25 cbr 210 [0 0 0 0] ------- [0:0 3:0 32 0] [25] 0 0
s 0.093750000 _0_ RTR  --- 25 cbr 230 [0 0 0 0] ------- [0:0 3:0 30 1] [25] 0 0
s 0.094100178 _0_ MAC  --- 11 cbr 288 [13a 1 0 800] ------- [0:0 3:0 30 1] [11] 0 0
r 0.096052844 _1_ MAC  --- 11 cbr 230 [13a 1 0 800] ------- [0:0 3:0 30 1] [11] 1 0
s 0.096062844 _1_ MAC  --- 0 ACK 38 [0 0 0 0] 
r 0.096077844 _1_ RTR  --- 11 cbr 230 [13a 1 0 800] ------- [0:0 3:0 30 1] [11] 1 0
f 0.096077844 _1_ RTR  --- 11 cbr 230 [13a 1 0 800] ------- [0:0 3:0 29 2] [11] 1 0
r 0.096367511 _0_ MAC  --- 0 ACK 38 [0 0 0 0] 
s 0.096496844 _1_ MAC  --- 11 cbr 288 [13a 2 1 800] ------- [0:0 3:0 29 2] [11] 1 0
s 0.097500000 _0_ AGT  --- 26 cbr 210 [0 0 0 0] ------- [0:0 3:0 32 0] [26] 0 0
r 0.097500000 _0_ RTR  --- 26 cbr 210 [0 0 0 0] ------- [0:0 3:0 32 0] [26] 0 0
s 0.097500000 _0_ RTR  --- 26 cbr 230 [0 0 0 0] ------- [0:0 3:0 30 1] [26] 0 0
r 0.098449511 _2_ MAC  --- 11 cbr 230 [13a 2 1 800] ------- [0:0 3:0 29 2] [11] 2 0
s 0.098459511 _2_ MAC  --- 0 ACK 38 [0 1 0 0] 
r 0.098474511 _2_ RTR  --- 11 cbr 230 [13a 2 1 800] ------- [0:0 3:0 29 2] [11] 2 0
f 0.098474511 _2_ RTR  --- 11 cbr 230 [13a 2 1 800] ------- [0:0 3:0 28 3] [11] 2 0
r 0.098764178 _1_ MAC  --- 0 ACK 38 [0 1 0 0] 
s 0.098993511 _0_ MAC  --- 12 cbr 288 [13a 1 0 800] ------- [0:0 3:0 30 1] [12] 0 0
s 0.099013511 _2_ MAC  --- 11 cbr 288 [13a 3 2 800] ------- [0:0 3:0 28 3] [11] 2 0
D 0.099014178 _1_ MAC  COL 12 cbr 288 [13a 1 0 800] ------- [0:0 3:0 30 1] [12] 0 0
r 0.100966178 _3_ MAC  --- 11 cbr 230 [13a 3 2 800] ------- [0:0 3:0 28 3] [11] 3 0
s 0.100976178 _3_ MAC  --- 0 ACK 38 [0 2 0 0] 
r 0.100991178 _3_ AGT  --- 11 cbr 230 [13a 3 2 800] ------- [0:0 3:0 28 3] [11] 3 0
s 0.101250000 _0_ AGT  --- 27 cbr 210 [0 0 0 0] ------- [0:0 3:0 32 0] [27] 0 0
r 0.101250000 _0_ RTR  --- 27 cbr 210 [0 0 0 0] ------- [0:0 3:0 32 0] [27] 0 0
s 0.101250000 _0_ RTR  --- 27 cbr 230 [0 0 0 0] ------- [0:0 3:0 30 1] [27] 0 0
r 0.101280844 _2_ MAC  --- 0 ACK 38 [0 2 0 0] 
s 0.101893511 _0_ MAC  --- 12 cbr 288 [13a 1 0 800] ------- [0:0 3:0 30 1] [12] 0 0
r 0.103846178 _1_ MAC  --- 12 cbr 230 [13a 1 0 800] ------- [0:0 3:0 30 1] [12] 1 0
s 0.103856178 _1_ MAC  --- 0 ACK 38 [0 0 0 0] 
r 0.103871178 _1_ RTR  --- 12 cbr 230 [13a 1 0 800] ------- [0:0 3:0 30 1] [12] 1 0
f 0.103871178 _1_ RTR  --- 12 cbr 230 [13a 1 0 800] ------- [0:0 3:0 29 2] [12] 1 0
r 0.104160844 _0_ MAC  --- 0 ACK 38 [0 0 0 0] 
s 0.104270844 _0_ MAC  --- 3 cbr 288 [13a 1 0 800] ------- [0:0 3:0 30 1] [3] 0 0
s 0.105000000 _0_ AGT  --- 28 cbr 210 [0 0 0 0] ------- [0:0 3:0 32 0] [28] 0 0
r 0.105000000 _0_ RTR  --- 28 cbr 210 [0 0 0 0] ------- [0:0 3:0 32 0] [28] 0 0
s 0.105000000 _0_ RTR  --- 28 cbr 230 [0 0 0 0] ------- [0:0 3:0 30 1] [28] 0 0
r 0.106223511 _1_ MAC  --- 3 cbr 230 [13a 1 0 800] ------- [0:0 3:0 30 1] [3] 1 0
s 0.106233511 _1_ MAC  --- 0 ACK 38 [0 0 0 0] 
r 0.106248511 _1_ RTR  --- 3 cbr 230 [13a 1 0 800] ------- [0:0 3:0 30 1] [3] 1 0
f 0.106248511 _1_ RTR  --- 3 cbr 230 [13a 1 0 800] ------- [0:0 3:0 29 2] [3] 1 0
r 0.106538178 _0_ MAC  --- 0 ACK 38 [0 0 0 0] 
s 0.106647511 _1_ MAC  --- 12 cbr 288 [13a 2 1 800] ------- [0:0 3:0 29 2] [12] 1 0
r 0.108600178 _2_ MAC  --- 12 cbr 230 [13a 2 1 800] ------- [0:0 3:0 29 2] [12] 2 0
s 0.108610178 _2_ MAC  --- 0 ACK 38 [0 1 0 0] 
r 0.108625178 _2_ RTR  --- 12 cbr 230 [13a 2 1 800] ------- [0:0 3:0 29 2] [12] 2 0
f 0.108625178 _2_ RTR  --- 12 cbr 230 [13a 2 1 800] ------- [0:0 3:0 28 3] [12] 2 0
s 0.108750000 _0_ AGT  --- 29 cbr 210 [0 0 0 0] ------- [0:0 3:0 32 0] [29] 0 0
r 0.108750000 _0_ RTR  --- 29 cbr 210 [0 0 0 0] ------- [0:0 3:0 32 0] [29] 0 0
s 0.108750000 _0_ RTR  --- 29 cbr 230 [0 0 0 0] ------- [0:0 3:0 30 1] [29] 0 0
r 0.108914844 _1_ MAC  --- 0 ACK 38 [0 1 0 0] 
s 0.109084178 _2_ MAC  --- 12 cbr 288 [13a 3 2 800] ------- [0:0 3:0 28 3] [12] 2 0
s 0.109484178 _0_ MAC  --- 13 cbr 288 [13a 1 0 800] ------- [0:0 3:0 30 1] [13] 0 0
r 0.111036844 _3_ MAC  --- 12 cbr 230 [13a 3 2 800] ------- [0:0 3:0 28 3] [12] 3 0
s 0.111046844 _3_ MAC  --- 0 ACK 38 [0 2 0 0] 
r 0.111061844 _3_ AGT  --- 12 cbr 230 [13a 3 2 800] ------- [0:0 3:0 28 3] [12] 3 0
r 0.111351511 _2_ MAC  --- 0 ACK 38 [0 2 0 0] 
D 0.111436844 _1_ MAC  COL 13 cbr 288 [13a 1 0 800] ------- [0:0 3:0 30 1] [13] 0 0
s 0.112330844 _1_ MAC  --- 3 cbr 288 [13a 2 1 800] ------- [0:0 3:0 29 2] [3] 1 0
s 0.112500000 _0_ AGT  --- 30 cbr 210 [0 0 0 0] ------- [0:0 3:0 32 0] [30] 0 0
r 0.112500000 _0_ RTR  --- 30 cbr 210 [0 0 0 0] ------- [0:0 3:0 32 0] [30] 0 0
s 0.112500000 _0_ RTR  --- 30 cbr 230 [0 0 0 0] ------- [0:0 3:0 30 1] [30] 0 0
r 0.114283511 _2_ MAC  --- 3 cbr 230 [13a 2 1 800] ------- [0:0 3:0 29 2] [3] 2 0
s 0.114293511 _2_ MAC  --- 0 ACK 38 [0 1 0 0] 
r 0.114308511 _2_ RTR  --- 3 cbr 230 [13a 2 1 800] ------- [0:0 3:0 29 2] [3] 2 0
f 0.114308511 _2_ RTR  --- 3 cbr 230 [13a 2 1 800] ------- [0:0 3:0 28 3] [3] 2 0
r 0.114598178 _1_ MAC  --- 0 ACK 38 [0 1 0 0] 
s 0.114947511 _2_ MAC  --- 3 cbr 288 [13a 3 2 800] ------- [0:0 3:0 28 3] [3] 2 0
s 0.115347511 _0_ MAC  --- 13 cbr 288 [13a 1 0 800] ------- [0:0 3:0 30 1] [13] 0 0
s 0.116250000 _0_ AGT  --- 31 cbr 210 [0 0 0 0] ------- [0:0 3:0 32 0] [31] 0 0
r 0.116250000 _0_ RTR  --- 31 cbr 210 [0 0 0 0] ------- [0:0 3:0 32 0] [31] 0 0
s 0.116250000 _0_ RTR  --- 31 cbr 230 [0 0 0 0] ------- [0:0 3:0 30 1] [31] 0 0
r 0.116900178 _3_ MAC  --- 3 cbr 230 [13a 3 2 800] ------- [0:0 3:0 28 3] [3] 3 0
s 0.116910178 _3_ MAC  --- 0 ACK 38 [0 2 0 0] 
r 0.116925178 _3_ AGT  --- 3 cbr 230 [13a 3 2 800] ------- [0:0 3:0 28 3] [3] 3 0
r 0.117214844 _2_ MAC  --- 0 ACK 38 [0 2 0 0] 
D 0.117300178 _1_ MAC  COL 13 cbr 288 [13a 1 0 800] ------- [0:0 3:0 30 1] [13] 0 0
s 0.119947511 _0_ MAC  --- 13 cbr 288 [13a 1 0 800] ------- [0:0 3:0 30 1] [13] 0 0
s 0.120000000 _0_ AGT  --- 32 cbr 210 [0 0 0 0] ------- [0:0 3:0 32 0] [32] 0 0
r 0.120000000 _0_ RTR  --- 32 cbr 210 [0 0 0 0] ------- [0:0 3:0 32 0] [32] 0 0
s 0.120000000 _0_ RTR  --- 32 cbr 230 [0 0 0 0] ------- [0:0 3:0 30 1] [32] 0 0
r 0.121900178 _1_ MAC  --- 13 cbr 230 [13a 1 0 800] ------- [0:0 3:0 30 1] [13] 1 0
s 0.121910178 _1_ MAC  --- 0 ACK 38 [0 0 0 0] 
r 0.121925178 _1_ RTR  --- 13 cbr 230 [13a 1 0 800] ------- [0:0 3:0 30 1] [13] 1 0
f 0.121925178 _1_ RTR  --- 13 cbr 230 [13a 1 0 800] ------- [0:0 3:0 29 2] [13] 1 0
r 0.122214844 _0_ MAC  --- 0 ACK 38 [0 0 0 0] 
s 0.122304178 _1_ MAC  --- 13 cbr 288 [13a 2 1 800] ------- [0:0 3:0 29 2] [13] 1 0
s 0.123750000 _0_ AGT  --- 33 cbr 210 [0 0 0 0] ------- [0:0 3:0 32 0] [33] 0 0
r 0.123750000 _0_ RTR  --- 33 cbr 210 [0 0 0 0] ------- [0:0 3:0 32 0] [33] 0 0
s 0.123750000 _0_ RTR  --- 33 cbr 230 [0 0 0 0] ------- [0:0 3:0 30 1] [33] 0 0
r 0.124256844 _2_ MAC  --- 13 cbr 230 [13a 2 1 800] ------- [0:0 3:0 29 2] [13] 2 0
s 0.124266844 _2_ MAC  --- 0 ACK 38 [0 1 0 0] 
r 0.124281844 _2_ RTR  --- 13 cbr 230 [13a 2 1 800] ------- [0:0 3:0 29 2] [13] 2 0